lammpslib autogenerated data file

168 atoms
4 atom types

  0.00000000e+00   1.14200000e+01 xlo xhi
  0.00000000e+00   1.05800000e+01 ylo yhi
  0.00000000e+00   1.31400000e+01 zlo zhi
  0.00000000e+00   0.00000000e+00   0.00000000e+00 xy xz yz

Masses

1 1.00799999974
2 12.0109999969
3 14.0069999964
4 15.9989999959

Atoms # charge

1 1   0.00000000e+00   7.11418000e+00   5.44477000e+00   1.14393000e+01
2 1   0.00000000e+00   7.43051000e+00   2.88834000e+00   1.20058000e+01
3 1   0.00000000e+00   3.40981000e+00   7.57074000e+00   1.49788000e+00
4 1   0.00000000e+00   9.31603000e+00   7.48551000e+00   4.98647000e+00
5 1   0.00000000e+00   2.33105000e+00   2.74147000e+00   8.74367000e+00
6 1   0.00000000e+00   4.04720000e+00   7.40706000e+00   7.47072000e+00
7 1   0.00000000e+00   7.73425000e+00   1.83853000e+00   5.55916000e+00
8 1   0.00000000e+00   2.23469000e+00   2.69251000e+00   1.64498000e+00
9 1   0.00000000e+00   9.29895000e+00   8.80585000e+00   1.16391000e+01
10 1   0.00000000e+00   7.86985000e+00   2.90294000e+00   6.68510000e-01
11 1   0.00000000e+00   3.67732000e+00   7.57547000e+00   1.29518000e+01
12 1   0.00000000e+00   9.67186000e+00   7.55151000e+00   6.72551000e+00
13 1   0.00000000e+00   1.80732000e+00   3.12795000e+00   7.02232000e+00
14 1   0.00000000e+00   3.52411000e+00   7.56629000e+00   5.84654000e+00
15 1   0.00000000e+00   8.03455000e+00   2.02675000e+00   7.23857000e+00
16 1   0.00000000e+00   2.05420000e+00   2.53905000e+00   1.30546000e+01
17 1   0.00000000e+00   9.23015000e+00   8.96001000e+00   1.45920000e-01
18 1   0.00000000e+00   9.08253000e+00   4.23111000e+00   1.02260000e+01
19 1   0.00000000e+00   8.66790000e-01   6.73843000e+00   2.49209000e+00
20 1   0.00000000e+00   7.36699000e+00   6.42874000e+00   3.81732000e+00
21 1   0.00000000e+00   4.53723000e+00   3.24882000e+00   9.32429000e+00
22 1   0.00000000e+00   2.60714000e+00   8.37158000e+00   9.36207000e+00
23 1   0.00000000e+00   1.00199000e+01   1.41608000e+00   4.04663000e+00
24 1   0.00000000e+00   3.96444000e+00   1.47813000e+00   2.91761000e+00
25 1   0.00000000e+00   6.90470000e+00   9.24165000e+00   1.05232000e+01
26 1   0.00000000e+00   1.06500000e+01   4.84253000e+00   1.08982000e+01
27 1   0.00000000e+00   1.10759000e+01   6.56176000e+00   1.36133000e+00
28 1   0.00000000e+00   6.21371000e+00   5.85081000e+00   4.76044000e+00
29 1   0.00000000e+00   5.78254000e+00   3.86735000e+00   8.32960000e+00
30 1   0.00000000e+00   1.19462000e+00   9.33705000e+00   9.23231000e+00
31 1   0.00000000e+00   2.37260000e-01   1.08762000e+00   4.80202000e+00
32 1   0.00000000e+00   5.12652000e+00   4.18330000e-01   2.13324000e+00
33 1   0.00000000e+00   5.39709000e+00   9.38976000e+00   1.14443000e+01
34 1   0.00000000e+00   8.64260000e+00   1.37228000e+00   1.05067000e+01
35 1   0.00000000e+00   1.82896000e+00   9.85678000e+00   2.32964000e+00
36 1   0.00000000e+00   7.72696000e+00   9.21507000e+00   3.66989000e+00
37 1   0.00000000e+00   3.81284000e+00   7.96780000e-01   9.34602000e+00
38 1   0.00000000e+00   2.57266000e+00   5.76048000e+00   9.25541000e+00
39 1   0.00000000e+00   9.24908000e+00   4.15645000e+00   3.97372000e+00
40 1   0.00000000e+00   4.40792000e+00   3.95173000e+00   2.78692000e+00
41 1   0.00000000e+00   7.91918000e+00   6.51211000e+00   1.03534000e+01
42 1   0.00000000e+00   1.00989000e+01   4.49620000e-01   1.07740000e+01
43 1   0.00000000e+00   1.10883000e+00   9.29000000e-02   1.04462000e+00
44 1   0.00000000e+00   6.86293000e+00   1.01301000e+01   4.76791000e+00
45 1   0.00000000e+00   4.48808000e+00   1.04202000e+01   8.34421000e+00
46 1   0.00000000e+00   9.76690000e-01   5.09457000e+00   8.50660000e+00
47 1   0.00000000e+00   1.01383000e+01   5.12976000e+00   5.08115000e+00
48 1   0.00000000e+00   5.51929000e+00   4.76208000e+00   1.43476000e+00
49 3   0.00000000e+00   9.06740000e+00   4.16892000e+00   1.23873000e+01
50 3   0.00000000e+00   1.60318000e+00   6.65330000e+00   5.24800000e-01
51 3   0.00000000e+00   7.86189000e+00   6.42279000e+00   6.02490000e+00
52 3   0.00000000e+00   3.79525000e+00   3.65920000e+00   7.42873000e+00
53 3   0.00000000e+00   2.25815000e+00   8.78296000e+00   7.29579000e+00
54 3   0.00000000e+00   9.65744000e+00   1.24831000e+00   6.06569000e+00
55 3   0.00000000e+00   3.71967000e+00   1.32132000e+00   7.51930000e-01
56 3   0.00000000e+00   7.35411000e+00   9.46155000e+00   1.25445000e+01
57 3   0.00000000e+00   8.99217000e+00   1.51094000e+00   1.24697000e+01
58 3   0.00000000e+00   2.63073000e+00   9.35966000e+00   4.91780000e-01
59 3   0.00000000e+00   8.44595000e+00   9.13580000e+00   5.87993000e+00
60 3   0.00000000e+00   3.01478000e+00   1.11741000e+00   7.34059000e+00
61 3   0.00000000e+00   2.31273000e+00   6.21177000e+00   6.99987000e+00
62 3   0.00000000e+00   8.73256000e+00   3.81243000e+00   5.99318000e+00
63 3   0.00000000e+00   3.70391000e+00   3.98827000e+00   7.39390000e-01
64 3   0.00000000e+00   8.46594000e+00   7.04644000e+00   1.25466000e+01
65 3   0.00000000e+00   1.04075000e+01   2.67037000e+00   1.06518000e+01
66 3   0.00000000e+00   1.87100000e-01   8.76453000e+00   1.38609000e+00
67 3   0.00000000e+00   6.30945000e+00   8.10423000e+00   4.65210000e+00
68 3   0.00000000e+00   5.57421000e+00   1.77230000e+00   8.21417000e+00
69 3   0.00000000e+00   9.81010000e-01   7.20616000e+00   9.07383000e+00
70 3   0.00000000e+00   1.10823000e+01   3.07044000e+00   4.80542000e+00
71 3   0.00000000e+00   5.62478000e+00   2.60893000e+00   2.04042000e+00
72 3   0.00000000e+00   6.05970000e+00   7.39927000e+00   1.12711000e+01
73 3   0.00000000e+00   1.00646000e+01   4.29478000e+00   4.99360000e-01
74 3   0.00000000e+00   1.11135000e+00   6.89497000e+00   1.21731000e+01
75 3   0.00000000e+00   7.12648000e+00   6.33807000e+00   7.45155000e+00
76 3   0.00000000e+00   4.16443000e+00   3.92951000e+00   5.89048000e+00
77 3   0.00000000e+00   1.03604000e+00   9.17284000e+00   6.37902000e+00
78 3   0.00000000e+00   1.05890000e+01   1.20116000e+00   7.32365000e+00
79 3   0.00000000e+00   4.69158000e+00   1.24311000e+00   1.26359000e+01
80 3   0.00000000e+00   6.59921000e+00   9.57821000e+00   8.03720000e-01
81 3   0.00000000e+00   1.01336000e+01   1.44743000e+00   4.40260000e-01
82 3   0.00000000e+00   2.25028000e+00   9.51789000e+00   1.20957000e+01
83 3   0.00000000e+00   7.65496000e+00   9.50651000e+00   7.22651000e+00
84 3   0.00000000e+00   3.44396000e+00   9.45540000e-01   5.82800000e+00
85 3   0.00000000e+00   1.11229000e+00   6.12622000e+00   5.92449000e+00
86 3   0.00000000e+00   9.21296000e+00   4.19539000e+00   7.47259000e+00
87 3   0.00000000e+00   4.23339000e+00   4.21825000e+00   1.24144000e+01
88 3   0.00000000e+00   7.80988000e+00   6.65733000e+00   8.23120000e-01
89 3   0.00000000e+00   6.00350000e-01   2.58529000e+00   1.06615000e+01
90 3   0.00000000e+00   1.05310000e+01   8.95919000e+00   2.52588000e+00
91 3   0.00000000e+00   5.10564000e+00   8.26215000e+00   3.57341000e+00
92 3   0.00000000e+00   6.29341000e+00   1.68440000e+00   9.60502000e+00
93 3   0.00000000e+00   1.07636000e+01   7.55107000e+00   9.22154000e+00
94 3   0.00000000e+00   6.50550000e-01   3.40081000e+00   3.54517000e+00
95 3   0.00000000e+00   6.63730000e+00   2.54845000e+00   3.33344000e+00
96 3   0.00000000e+00   5.32735000e+00   7.31056000e+00   9.84140000e+00
97 4   0.00000000e+00   1.13336000e+01   4.21536000e+00   3.70530000e-01
98 4   0.00000000e+00   1.13030000e+01   7.26347000e+00   1.19925000e+01
99 4   0.00000000e+00   5.99986000e+00   5.71588000e+00   7.49525000e+00
100 4   0.00000000e+00   5.27591000e+00   3.59477000e+00   5.46588000e+00
101 4   0.00000000e+00   1.12765000e+01   9.45284000e+00   6.83839000e+00
102 4   0.00000000e+00   9.99681000e+00   1.01434000e+00   8.50516000e+00
103 4   0.00000000e+00   5.94391000e+00   1.66381000e+00   1.26440000e+01
104 4   0.00000000e+00   5.40756000e+00   9.17427000e+00   7.56780000e-01
105 4   0.00000000e+00   9.55214000e+00   4.76180000e+00   1.58718000e+00
106 4   0.00000000e+00   1.77104000e+00   6.47860000e+00   1.11660000e+01
107 4   0.00000000e+00   7.79086000e+00   6.58995000e+00   8.50973000e+00
108 4   0.00000000e+00   3.16049000e+00   4.27688000e+00   5.12823000e+00
109 4   0.00000000e+00   1.23316000e+00   9.28411000e+00   5.08032000e+00
110 4   0.00000000e+00   4.29560000e-01   1.28414000e+00   7.38349000e+00
111 4   0.00000000e+00   4.17130000e+00   9.50790000e-01   1.15320000e+01
112 4   0.00000000e+00   7.11442000e+00   1.02735000e+01   1.79157000e+00
113 4   0.00000000e+00   9.79599000e+00   1.64251000e+00   1.67135000e+00
114 4   0.00000000e+00   3.09007000e+00   8.96316000e+00   1.12994000e+01
115 4   0.00000000e+00   8.36524000e+00   9.50124000e+00   8.29836000e+00
116 4   0.00000000e+00   2.53618000e+00   1.28743000e+00   4.95271000e+00
117 4   0.00000000e+00   1.51574000e+00   6.14103000e+00   4.73425000e+00
118 4   0.00000000e+00   8.37549000e+00   4.17414000e+00   8.41708000e+00
119 4   0.00000000e+00   3.55943000e+00   3.82202000e+00   1.13561000e+01
120 4   0.00000000e+00   7.91761000e+00   7.42654000e+00   1.87566000e+00
121 4   0.00000000e+00   1.13189000e+01   1.36581000e+00   1.31338000e+01
122 4   0.00000000e+00   1.03577000e+00   9.95067000e+00   1.17733000e+01
123 4   0.00000000e+00   6.36416000e+00   9.55352000e+00   7.27691000e+00
124 4   0.00000000e+00   4.43624000e+00   1.65540000e-01   5.57002000e+00
125 4   0.00000000e+00   1.12572000e+01   6.33202000e+00   6.07936000e+00
126 4   0.00000000e+00   1.05012000e+01   4.08381000e+00   7.65914000e+00
127 4   0.00000000e+00   5.42651000e+00   4.79046000e+00   1.22667000e+01
128 4   0.00000000e+00   7.08910000e+00   5.60873000e+00   8.83480000e-01
129 4   0.00000000e+00   1.09674000e+00   1.55514000e+00   1.00797000e+01
130 4   0.00000000e+00   1.00599000e+01   1.01205000e+01   2.86640000e+00
131 4   0.00000000e+00   4.57094000e+00   9.42099000e+00   3.34566000e+00
132 4   0.00000000e+00   6.53253000e+00   5.60440000e-01   1.01746000e+01
133 4   0.00000000e+00   9.97685000e+00   6.62525000e+00   9.35928000e+00
134 4   0.00000000e+00   5.61240000e-01   4.62294000e+00   3.06405000e+00
135 4   0.00000000e+00   7.30098000e+00   3.60209000e+00   3.57171000e+00
136 4   0.00000000e+00   4.56857000e+00   6.27916000e+00   9.69969000e+00
137 4   0.00000000e+00   1.28438000e+00   3.66218000e+00   1.07471000e+01
138 4   0.00000000e+00   9.92268000e+00   7.90055000e+00   3.01280000e+00
139 4   0.00000000e+00   4.83299000e+00   7.27001000e+00   2.81790000e+00
140 4   0.00000000e+00   6.57825000e+00   2.82577000e+00   1.01817000e+01
141 4   0.00000000e+00   1.05138000e+01   8.82360000e+00   9.35072000e+00
142 4   0.00000000e+00   1.59310000e+00   2.63585000e+00   3.26880000e+00
143 4   0.00000000e+00   6.40182000e+00   1.54534000e+00   4.09675000e+00
144 4   0.00000000e+00   5.28305000e+00   8.40769000e+00   9.20344000e+00
145 2   0.00000000e+00   8.26905000e+00   2.85660000e+00   1.27530000e+01
146 2   0.00000000e+00   2.95394000e+00   7.77508000e+00   4.97510000e-01
147 2   0.00000000e+00   8.87039000e+00   7.68677000e+00   5.97141000e+00
148 2   0.00000000e+00   2.61658000e+00   2.70490000e+00   7.60960000e+00
149 2   0.00000000e+00   3.10436000e+00   7.49138000e+00   6.87362000e+00
150 2   0.00000000e+00   8.48418000e+00   2.19542000e+00   6.23867000e+00
151 2   0.00000000e+00   2.84602000e+00   2.67632000e+00   6.70720000e-01
152 2   0.00000000e+00   8.65078000e+00   8.58383000e+00   1.25227000e+01
153 2   0.00000000e+00   9.84035000e+00   4.11702000e+00   1.10388000e+01
154 2   0.00000000e+00   6.07730000e-01   7.12416000e+00   1.47776000e+00
155 2   0.00000000e+00   6.91197000e+00   6.63699000e+00   4.82105000e+00
156 2   0.00000000e+00   5.00301000e+00   3.21163000e+00   8.35330000e+00
157 2   0.00000000e+00   1.77943000e+00   8.47089000e+00   8.77775000e+00
158 2   0.00000000e+00   1.06855000e+01   1.65794000e+00   4.85868000e+00
159 2   0.00000000e+00   4.60395000e+00   1.36078000e+00   2.01798000e+00
160 2   0.00000000e+00   6.35925000e+00   8.88400000e+00   1.14232000e+01
161 2   0.00000000e+00   9.58114000e+00   1.44023000e+00   1.10426000e+01
162 2   0.00000000e+00   1.37958000e+00   9.68950000e+00   1.33430000e+00
163 2   0.00000000e+00   7.39683000e+00   9.16499000e+00   4.67138000e+00
164 2   0.00000000e+00   4.17156000e+00   8.39200000e-01   8.34131000e+00
165 2   0.00000000e+00   1.62229000e+00   5.96307000e+00   8.55396000e+00
166 2   0.00000000e+00   9.78033000e+00   4.14326000e+00   4.96946000e+00
167 2   0.00000000e+00   4.92308000e+00   3.91485000e+00   1.77801000e+00
168 2   0.00000000e+00   7.41116000e+00   6.54941000e+00   1.13228000e+01
