begin
comment generated by PY
lattice        11.4200000000         0.0000000000         0.0000000000
lattice         0.0000000000        10.5800000000         0.0000000000
lattice         0.0000000000         0.0000000000        13.1400000000
atom         0.2584800000        4.9567800000        6.5182000000 H         0.0000000000         0.0000000000       125.9336146117      -43.9925124701       75.2827812052
atom         2.9821100000        2.8210300000        8.3594900000 H         0.0000000000         0.0000000000        49.1698327640       82.7523674438      -20.4218584018
atom         3.4776200000        4.0359900000        5.2483100000 H         0.0000000000         0.0000000000       -58.5884599816       51.9617687047      -39.5596198476
atom         4.4042100000        5.3445800000        7.7288300000 H         0.0000000000         0.0000000000       -50.7647973696     -102.2047083867      -39.0293581228
atom         4.5080300000        1.4456700000        8.4230200000 H         0.0000000000         0.0000000000         1.1155332758       30.6132469542      -55.6010249757
atom         3.0324900000        6.1365300000        6.8609700000 H         0.0000000000         0.0000000000       -65.5537259570     -107.2602958045      -67.9227711826
atom         2.6594000000        5.1555000000        6.4499000000 C         0.0000000000         0.0000000000        45.8111135807      -17.9384001223        5.1498273335
atom         3.7838400000        3.3192500000        7.9733700000 C         0.0000000000         0.0000000000        70.8981517153      -90.0266506510     -147.5900378092
atom         4.9233700000        3.0440300000        5.5382700000 O         0.0000000000         0.0000000000       111.9017845374     -218.3861644413      179.3399929266
atom         1.2707400000        6.0648900000        9.0593100000 O         0.0000000000         0.0000000000       -39.0567167320     -234.0972769578     -111.5518317477
atom         1.5630600000        5.0174600000        3.1373000000 O         0.0000000000         0.0000000000         0.6743564562     -110.6653314463      312.3316637411
atom         1.1817300000        4.7311500000        7.1582400000 N         0.0000000000         0.0000000000        10.0980766771       52.7122774948      -24.2789479232
atom         3.9435600000        4.4854100000        7.3095700000 N         0.0000000000         0.0000000000      -123.8250510330      -85.4391488308       68.9975524761
atom         2.7801100000        4.8031500000        5.0561500000 N         0.0000000000         0.0000000000       -33.5883236698       -6.7241511273      205.0650728959
atom         4.4726700000        2.0603900000        7.6435900000 N         0.0000000000         0.0000000000       -58.4237672521      245.3218861037       13.0507739525
atom         5.3968900000        2.1903500000        6.2166300000 N         0.0000000000         0.0000000000      -150.8423749319      193.0243879797     -102.0632867389
atom         0.9068900000        4.7361700000        8.4093900000 N         0.0000000000         0.0000000000        72.8784575334      242.2034426208      -29.7729517313
atom         1.4875100000        4.6436400000        4.2908300000 N         0.0000000000         0.0000000000        92.1839741143      118.1907769131     -221.3953016755
energy     -3331.5559837093
charge 0
end
begin
comment generated by PY
lattice        11.4200000000         0.0000000000         0.0000000000
lattice         0.0000000000        10.5800000000         0.0000000000
lattice         0.0000000000         0.0000000000        13.1400000000
atom         0.3540600000        4.6053000000        6.5315500000 H         0.0000000000         0.0000000000        68.3162797298        1.3829103092       91.3978261258
atom         3.0096700000        2.2182000000        6.9477700000 H         0.0000000000         0.0000000000        44.0986382629       82.3608527771       86.7813304293
atom         1.8064700000        3.4608900000        4.9202200000 H         0.0000000000         0.0000000000        33.9317740462       91.7391787862       21.6568746697
atom         4.0203700000        4.9004900000        7.7120300000 H         0.0000000000         0.0000000000       -51.0160509948      -67.2593325310      -29.6310151403
atom         3.9614200000        1.7346900000        9.0960600000 H         0.0000000000         0.0000000000        17.3924274599       65.7690312232      -42.9641111264
atom         2.6683800000        5.8509100000        6.5615400000 H         0.0000000000         0.0000000000       -47.3066449158     -133.1218511880       -2.5993291345
atom         2.3915000000        4.7732100000        6.5756900000 C         0.0000000000         0.0000000000       -14.8678802020      -16.6397028731        4.9489991543
atom         3.4765700000        2.9255700000        7.6571200000 C         0.0000000000         0.0000000000       105.2215741103       87.7499811781      126.4306796750
atom         5.5811900000        2.8551200000        5.1197600000 O         0.0000000000         0.0000000000       184.5619960786     -210.7618113390      173.9861951146
atom         1.7609800000        6.0061500000        8.9274800000 O         0.0000000000         0.0000000000      -229.5660438625     -172.3450005081     -152.7175728664
atom         1.5914100000        4.9863100000        3.1685500000 O         0.0000000000         0.0000000000        18.0973183269       92.3086904716      292.7265503764
atom         1.0858000000        4.5916900000        7.2824900000 N         0.0000000000         0.0000000000       102.9417549983      117.7326503777      -53.7880308307
atom         3.4505100000        4.2007100000        7.2424200000 N         0.0000000000         0.0000000000      -115.9261776049      -76.3874208488      -21.6147133602
atom         2.1130800000        4.4172700000        5.1730500000 N         0.0000000000         0.0000000000       -32.4201997953       61.1603363683       91.1481137396
atom         4.1249000000        2.6737900000        8.7488700000 N         0.0000000000         0.0000000000      -175.7851978195       -3.3083006739     -232.9948554243
atom         6.2390500000        2.1033000000        5.7388500000 N         0.0000000000         0.0000000000      -185.6099517245      211.2941999350     -173.4200161923
atom         0.7975800000        5.3938200000        8.4027200000 N         0.0000000000         0.0000000000       241.9769838538       70.8824774558        2.9703832622
atom         1.7105200000        5.3946600000        4.3504200000 N         0.0000000000         0.0000000000        35.9246074142     -202.4602421303     -182.3232028840
energy     -3620.9532598490
charge 0
end
begin
comment generated by PY
lattice        11.4200000000         0.0000000000         0.0000000000
lattice         0.0000000000        10.5800000000         0.0000000000
lattice         0.0000000000         0.0000000000        13.1400000000
atom         6.4128100000        8.5452400000        5.1917700000 H         0.0000000000         0.0000000000        -5.2036826768      -46.3781579501      -76.2979630248
atom         7.1095400000        8.2479500000        3.6961200000 H         0.0000000000         0.0000000000        70.6914135929       87.2349933616     -114.9898129854
atom         9.4129400000        0.2960300000        6.5728500000 H         0.0000000000         0.0000000000        71.0140623509      -73.8437068594       37.2169922730
atom         6.2942600000        7.1904500000        3.8628100000 H         0.0000000000         0.0000000000       -15.3158661132       14.8611796739       31.1873976455
atom         9.4654200000        7.8499100000        6.7950600000 H         0.0000000000         0.0000000000        12.2447484881       23.7594680165       -8.5988537674
atom         8.7937800000        6.9966400000        7.0257000000 H         0.0000000000         0.0000000000       -53.9940354788       85.2986389113      -98.9391480209
atom        10.2426000000        9.0469200000        6.5113800000 C         0.0000000000         0.0000000000        64.1060461884       97.0544466882     -182.5656384697
atom         7.9164200000        7.5604500000        4.9574100000 C         0.0000000000         0.0000000000        18.1453295705      -68.6248977544      141.4372651136
atom         2.5410700000        6.3277800000        4.6674500000 O         0.0000000000         0.0000000000      -112.6081116746      145.7366568231     -162.6804849943
atom         0.3950900000        7.3857400000        7.1670600000 O         0.0000000000         0.0000000000        55.1663288550     -169.8651459524     -262.2356659572
atom         8.8136100000        7.3348200000        4.1717200000 O         0.0000000000         0.0000000000      -120.6518006628       34.1994498837       81.8072948432
atom        10.1329000000       10.1850000000        6.8504800000 N         0.0000000000         0.0000000000       -58.7649877121     -181.2834484732      -82.2530446061
atom         6.5935600000        7.9744400000        4.3289500000 N         0.0000000000         0.0000000000        68.4921424821      -69.9889411011      218.0806023595
atom         7.7793200000        7.4694400000        6.2208500000 N         0.0000000000         0.0000000000        64.7318775324       -4.5916330709     -190.5588051462
atom        10.6720000000        8.5746700000        5.3442000000 N         0.0000000000         0.0000000000        48.9244421705       -7.4734341527      142.4506852867
atom         2.0373400000        6.9785600000        3.9154500000 N         0.0000000000         0.0000000000        85.5855660967     -136.8922313956      171.9005160598
atom         0.6731900000        6.7646200000        6.1308700000 N         0.0000000000         0.0000000000       -75.9854014101      244.8569578075      160.0892197109
atom         0.4039200000        7.6241500000        4.8236000000 N         0.0000000000         0.0000000000      -116.5713548585       25.9540106287      195.0116606128
energy     -3366.3519584630
charge 0
end
begin
comment generated by PY
lattice        11.4200000000         0.0000000000         0.0000000000
lattice         0.0000000000        10.5800000000         0.0000000000
lattice         0.0000000000         0.0000000000        13.1400000000
atom         5.2534700000        8.2001200000        3.7363900000 H         0.0000000000         0.0000000000       -34.1832258123       82.2754444697      -21.3577415403
atom         5.5653900000        9.6755200000        3.0225500000 H         0.0000000000         0.0000000000       -73.4243617087      -59.8157284697       50.7597626687
atom         9.9275500000       10.3454000000        7.7254600000 H         0.0000000000         0.0000000000        -0.6251102411        9.0362533111      -86.7447495140
atom         4.2499300000        9.4796800000        4.1213200000 H         0.0000000000         0.0000000000        66.0324791989      -37.6935697044      -63.3468476435
atom         0.0091700000        7.0538400000        8.6766800000 H         0.0000000000         0.0000000000       -52.2593690452       75.9883657548     -131.5973785830
atom         7.5069500000        7.6378600000        6.7972700000 H         0.0000000000         0.0000000000        80.7592747322      -54.6272218512      -44.0303816723
atom        10.8223300000        9.5918100000        6.3312700000 C         0.0000000000         0.0000000000       -45.3617055766      -58.2983891719      -97.1602479953
atom         8.5057100000        6.7070800000        5.3005200000 C         0.0000000000         0.0000000000       -47.4811841687       40.0658706892      149.8530193391
atom         3.1074600000        6.0939100000        3.4151100000 O         0.0000000000         0.0000000000       -87.6062219122      301.4561313708      -32.3149353341
atom        11.0799500000        7.6213900000        7.8999600000 O         0.0000000000         0.0000000000        98.5736642102     -144.3215760377      -52.9627367366
atom         8.7177700000        6.2501700000        4.2315700000 O         0.0000000000         0.0000000000       -23.5085978865       74.4991666124      176.6158239946
atom         9.9383500000       10.3444300000        6.6988500000 N         0.0000000000         0.0000000000       242.0885639936     -199.6570319438       -7.8418488295
atom         4.8178400000        9.0502800000        3.3818000000 N         0.0000000000         0.0000000000        38.8099289785       11.2438145140       33.5955658485
atom         8.3111800000        7.0931400000        6.4373500000 N         0.0000000000         0.0000000000        -7.0936501226      -59.0686334323     -283.3187351741
atom         0.1172400000        8.8121900000        5.6378200000 N         0.0000000000         0.0000000000      -154.0849469357      112.2373447783      206.6892744848
atom         2.7798900000        7.2103200000        3.2988300000 N         0.0000000000         0.0000000000        89.2947519476     -297.3130472518       33.4567362222
atom         0.0831900000        6.8798400000        6.7551500000 N         0.0000000000         0.0000000000        15.6880678076      139.4436166355       27.3555570791
atom         0.3780700000        7.4909200000        5.7231600000 N         0.0000000000         0.0000000000      -105.6464168432       64.5526751431      142.4229929009
energy     -3535.4528542690
charge 0
end
begin
comment generated by PY
lattice        11.4200000000         0.0000000000         0.0000000000
lattice         0.0000000000        10.5800000000         0.0000000000
lattice         0.0000000000         0.0000000000        13.1400000000
atom         0.4685100000        4.6342200000        2.1995700000 H         0.0000000000         0.0000000000       -29.0864681633      118.4000969482       47.6833379875
atom         2.5359900000        0.1491900000        1.2647100000 H         0.0000000000         0.0000000000        39.1785220969      116.9757578365        6.4165791277
atom         2.6795400000        2.1158500000        0.7193200000 C         0.0000000000         0.0000000000         6.4308860454     -104.1068908910      209.0580096954
atom         0.9345700000        4.2711100000        0.6355900000 C         0.0000000000         0.0000000000      -102.7910261020       -2.2182123383       15.8516269893
atom         5.0697100000        2.7232700000        2.7263700000 C         0.0000000000         0.0000000000       223.3167360257       30.8067142562        1.0264923569
atom         3.0982000000        0.7528300000        3.2817700000 C         0.0000000000         0.0000000000       -89.2761752659      162.8116533287       66.8425901296
atom         2.4722300000        3.2929800000        0.5511800000 O         0.0000000000         0.0000000000        16.0518515966     -141.7044883868      -13.9542026001
atom         5.6293400000        3.0615500000        3.8344900000 O         0.0000000000         0.0000000000      -136.7165857317      -64.7024965868     -228.4533393153
atom         3.6005200000        1.9414100000        3.3799700000 O         0.0000000000         0.0000000000       -29.2073315114     -172.0379681304        6.8257220991
atom         0.2823600000        4.6065600000       12.8723000000 O         0.0000000000         0.0000000000       106.4705570668      -63.6402380630      135.7065547132
atom         2.3217000000        0.0895700000        3.9073600000 O         0.0000000000         0.0000000000       144.4679579722       87.0022935230     -121.2672101664
atom         5.4216600000        2.6186200000        1.4856900000 O         0.0000000000         0.0000000000      -111.1969150307       14.8542935755      247.5841928901
atom         0.6012500000        3.8354300000        2.0567000000 O         0.0000000000         0.0000000000        47.2129680383      -66.0401643248     -176.3580357426
atom         2.8357200000        1.1522800000        1.5261200000 N         0.0000000000         0.0000000000       -84.8507230777       83.5586532607     -196.9153110099
energy     -2710.6668484985
charge 0
end
begin
comment generated by PY
lattice        11.4200000000         0.0000000000         0.0000000000
lattice         0.0000000000        10.5800000000         0.0000000000
lattice         0.0000000000         0.0000000000        13.1400000000
atom         0.7392900000        5.0627300000        2.2579200000 H         0.0000000000         0.0000000000       -74.5111629448      -82.6944819979       -9.8972253751
atom         1.3687700000        0.2585800000       12.5348400000 H         0.0000000000         0.0000000000        63.0312536395       42.7365456169       43.0910137642
atom         2.9436200000        1.4831300000       12.7053100000 C         0.0000000000         0.0000000000      -106.7672250450      -95.2506102013       55.6615862789
atom        10.9590500000        4.4635000000        0.9683100000 C         0.0000000000         0.0000000000        94.2800322230      129.0262660856        6.3862646950
atom         6.6436700000        3.2761800000        2.7350900000 C         0.0000000000         0.0000000000       -26.6873008921      -21.7300754245       42.3425208738
atom         2.2056900000        0.6863900000        4.4410400000 C         0.0000000000         0.0000000000        33.2527895846        4.4587231449        0.9386034559
atom         3.8239300000        2.2358800000       12.4425600000 O         0.0000000000         0.0000000000      -149.3189838494     -129.1202911263       49.8652979404
atom         6.9957500000        3.9776700000        3.6112100000 O         0.0000000000         0.0000000000       -50.0709710698     -106.8392998564     -149.8295601335
atom         2.1907000000        1.8311800000        4.7470100000 O         0.0000000000         0.0000000000        -4.3123014193     -200.6505020713      -53.6621806939
atom        11.1756400000        5.3517200000        0.1910500000 O         0.0000000000         0.0000000000       -35.6440752051     -139.1826440394      117.1721323360
atom         2.3323500000       10.1298700000        4.1386300000 O         0.0000000000         0.0000000000       -28.9584010041      196.1718806421       52.5800449668
atom         6.1936200000        2.4905900000        1.9913900000 O         0.0000000000         0.0000000000        76.8217862003      128.5423983932      107.4235360452
atom         0.0940600000        4.3228700000        2.1880300000 O         0.0000000000         0.0000000000        15.6653234040       92.7702715776     -113.7737514004
atom         2.0778700000        0.7158300000       13.1014000000 N         0.0000000000         0.0000000000       193.2102900965      181.7493812894     -148.3119922326
energy     -2875.1127502927
charge 0
end
begin
comment generated by PY
lattice        11.4200000000         0.0000000000         0.0000000000
lattice         0.0000000000        10.5800000000         0.0000000000
lattice         0.0000000000         0.0000000000        13.1400000000
atom         9.8871300000        8.4647900000        6.9139500000 H         0.0000000000         0.0000000000      -139.1839545322       40.8181922928       37.0818870755
atom         6.8139800000        7.7811500000        6.8307400000 H         0.0000000000         0.0000000000       140.8638975244        7.3181813150      -44.9924194944
atom         7.0813200000        6.6621600000        3.9996600000 H         0.0000000000         0.0000000000         8.5457602613      -42.5172338446       74.3510636171
atom         8.4353200000        9.3916100000        7.9121100000 H         0.0000000000         0.0000000000        47.5106677888      -99.3023875909     -105.8886235863
atom         8.0195900000        7.8627600000        6.4048300000 C         0.0000000000         0.0000000000        30.6895071878      -38.8526088373      -24.8389025826
atom         7.3043000000        6.3132400000        4.9211900000 C         0.0000000000         0.0000000000        92.3944855665      -53.7170253139       95.4463965933
atom         5.5834500000        6.5907100000        8.2436800000 O         0.0000000000         0.0000000000       222.3842419685     -151.6183066157     -224.2265576874
atom         5.9925200000        6.0377100000        5.7463000000 O         0.0000000000         0.0000000000        96.1961462057       37.1152235907        1.5373010464
atom         5.6458800000        4.1347600000        5.1400000000 O         0.0000000000         0.0000000000       243.1572180709      -88.2473443648     -132.6769601616
atom         8.7850400000        8.6807100000        7.1259300000 N         0.0000000000         0.0000000000       -38.2100480387     -117.3184437221      -96.3730643359
atom         7.9666500000        5.7723200000        8.9562400000 N         0.0000000000         0.0000000000       296.8054248407      228.1514947355      -54.8740723052
atom         7.8283000000        4.7701700000        4.8710700000 N         0.0000000000         0.0000000000      -165.8663700262        2.7573563686      -65.9603622141
atom         8.2720100000        7.0800600000        5.4513100000 N         0.0000000000         0.0000000000      -210.2269524044       59.7340284271      147.4747582267
atom         6.3943000000        6.1142500000        7.5331900000 N         0.0000000000         0.0000000000      -237.2093289599      152.2514826560      136.4797317464
atom         8.8885000000        6.5015700000        8.7571300000 N         0.0000000000         0.0000000000      -285.1325165868     -230.0344427261       63.0858944252
atom         6.7807300000        3.7535200000        4.6145200000 N         0.0000000000         0.0000000000      -102.7429219828      293.4849096935      194.3319886214
energy     -3159.8844299127
charge 0
end
begin
comment generated by PY
lattice        11.4200000000         0.0000000000         0.0000000000
lattice         0.0000000000        10.5800000000         0.0000000000
lattice         0.0000000000         0.0000000000        13.1400000000
atom         9.9582600000        8.3187000000        6.9117300000 H         0.0000000000         0.0000000000       -31.6598423383       74.2208054064      -39.0503307091
atom         8.0349100000        9.7778000000        5.1493000000 H         0.0000000000         0.0000000000        50.3508961002     -107.0414878834       65.3446636527
atom         7.3058900000        6.9938800000        3.8158400000 H         0.0000000000         0.0000000000       -36.7639594862       18.6669143957      113.6465564958
atom        10.0102200000       10.0308100000        6.5677300000 H         0.0000000000         0.0000000000       -44.5104032271      -81.3737336145      -15.5843568294
atom         8.4497100000        8.8816800000        5.6916000000 C         0.0000000000         0.0000000000        24.5030473906     -136.9574240388       61.5609114682
atom         6.9344900000        7.2001400000        4.8813700000 C         0.0000000000         0.0000000000        59.6338876382       52.2471975234       60.7237294798
atom         4.0994500000        5.5610200000        7.5121900000 O         0.0000000000         0.0000000000       294.4002086243       -0.7657594327      139.5085206856
atom         5.7841000000        6.9401700000        5.2108800000 O         0.0000000000         0.0000000000       170.6945064253       33.6853521289      -35.6055594934
atom         5.6111600000        3.7365800000        4.5371500000 O         0.0000000000         0.0000000000       289.8552262117      -20.7329506557       95.6646670943
atom         9.5525800000        9.1293300000        6.4351000000 N         0.0000000000         0.0000000000      -141.5517299782      -49.9184264609      -89.2356751724
atom         9.5330900000        5.5222400000       10.4065500000 N         0.0000000000         0.0000000000        66.4053331150       83.7517700901     -161.5046968060
atom         7.8096400000        3.8266300000        5.4008500000 N         0.0000000000         0.0000000000      -260.7291496117      -41.5420140937     -120.4940787631
atom         7.9211600000        7.7038900000        5.6519600000 N         0.0000000000         0.0000000000       -49.7079720404      193.3969074361     -119.9774449814
atom         5.1560400000        5.5579500000        8.0144400000 N         0.0000000000         0.0000000000      -293.9066263174        1.2387648667     -141.0623605483
atom         9.9121500000        6.0019800000        9.4856200000 N         0.0000000000         0.0000000000       -66.5258130774      -83.3840481332      161.0707034475
atom         6.7320600000        3.6945400000        4.9270000000 N         0.0000000000         0.0000000000       -30.5527238071       64.5576086421       24.9973384578
energy     -3330.8754919061
charge 0
end
begin
comment generated by PY
lattice        11.4200000000         0.0000000000         0.0000000000
lattice         0.0000000000        10.5800000000         0.0000000000
lattice         0.0000000000         0.0000000000        13.1400000000
atom         5.5185500000        5.0283600000        6.3257200000 H         0.0000000000         0.0000000000      -157.5269284967       -3.1143200687       -8.1814211376
atom         4.4824900000        3.5753700000        8.3706200000 H         0.0000000000         0.0000000000       -33.0632094115      102.2725174455       17.8172297290
atom         2.4235900000        2.9499000000       10.9002000000 H         0.0000000000         0.0000000000       -75.1216464410      -47.1432941980        3.2413304706
atom         2.9463000000        6.2923600000        7.6353300000 H         0.0000000000         0.0000000000       105.4560099324     -109.7668495039      -18.4158250980
atom         3.5599300000        5.2184800000        7.4197500000 C         0.0000000000         0.0000000000      -143.6653574571      -88.9601055620      -42.0026431058
atom         3.6077000000        4.0253600000        9.8668800000 C         0.0000000000         0.0000000000      -101.5054298095      -36.5025365439        6.7740841765
atom         1.1287700000        2.8379600000        8.2636900000 O         0.0000000000         0.0000000000        80.7299236756      284.3256358113      -87.2842429016
atom         5.3633000000        2.8801000000       12.1710000000 O         0.0000000000         0.0000000000      -290.9131466824      161.3735039869       55.2284361192
atom         2.6651800000        6.0953100000        4.9731400000 O         0.0000000000         0.0000000000       285.8638340245      -35.2362668702        1.4293375777
atom         2.2297500000        4.6687300000        7.0789200000 N         0.0000000000         0.0000000000        50.5015315577      -92.5480235163      152.4850718100
atom         4.0295200000        4.4854300000        8.6719800000 N         0.0000000000         0.0000000000       -45.5861664530     -106.4383630433       83.9131311545
atom         4.3539400000        4.9078600000        6.2121200000 N         0.0000000000         0.0000000000       -13.5995174203       97.2776212714      168.1415383419
atom         3.0987100000        3.5342000000       10.8653000000 N         0.0000000000         0.0000000000       243.4413409502      198.8920924167     -287.8057550746
atom         1.5736600000        4.0289000000        8.0586600000 N         0.0000000000         0.0000000000        69.1425903458     -152.3155469347      -39.6044856705
atom         4.3328400000        3.4541100000       12.3973000000 N         0.0000000000         0.0000000000       276.8585630540     -161.8784297400      -63.1847430201
atom         3.8050900000        5.9547500000        4.9421100000 N         0.0000000000         0.0000000000      -251.0441701945      -10.2360243783       57.4466013923
energy     -3172.6410704491
charge 0
end
begin
comment generated by PY
lattice        11.4200000000         0.0000000000         0.0000000000
lattice         0.0000000000        10.5800000000         0.0000000000
lattice         0.0000000000         0.0000000000        13.1400000000
atom         3.8581900000        3.8554200000        5.9745000000 H         0.0000000000         0.0000000000       -25.0091383388      112.0141282925       15.8886982575
atom         4.3780100000        5.4007700000        8.6450800000 H         0.0000000000         0.0000000000       -77.5080361861      -17.9018900115      -12.8898441650
atom         2.5103700000        2.4664700000       10.1681200000 H         0.0000000000         0.0000000000        55.7464068028       81.1595234012      -30.8387449481
atom         2.6181300000        6.4584200000        6.8186900000 H         0.0000000000         0.0000000000        17.7739634624     -129.4415572331       51.0980853973
atom         2.7841500000        5.4099800000        7.1639200000 C         0.0000000000         0.0000000000         4.2980340499     -119.2695894508       13.3757535693
atom         2.8966500000        4.0312100000        9.0918100000 C         0.0000000000         0.0000000000        10.4950911267      -56.9148681592        6.6007390037
atom         1.0057500000        2.7499300000        8.5757000000 O         0.0000000000         0.0000000000       162.4611630558      224.7266950274     -101.0483931248
atom         5.9285600000        3.0119300000       12.6213200000 O         0.0000000000         0.0000000000      -246.9610161534        8.9307169954      212.3285155634
atom         4.0044400000        6.6851900000        4.8722200000 O         0.0000000000         0.0000000000        67.2298593063     -277.7697207861       57.0708391372
atom         1.5163400000        4.5496100000        7.2373800000 N         0.0000000000         0.0000000000       199.6756540986      -11.8955489994      114.5742058216
atom         3.3970800000        5.1976200000        8.5147100000 N         0.0000000000         0.0000000000       -96.0109216380     -162.4114639159      -71.5874708214