begin
comment generated by PY
lattice        11.4200000000         0.0000000000         0.0000000000
lattice         0.0000000000        10.5800000000         0.0000000000
lattice         0.0000000000         0.0000000000        13.1400000000
atom         4.8700800000        6.7447900000        9.3387600000 H         0.0000000000         0.0000000000        78.7309440297       31.7768748780       88.0241261694
atom         5.5866800000        7.3103000000       11.0137000000 H         0.0000000000         0.0000000000         0.4331328552      -25.0779680735      -74.6247671039
atom         6.7174300000        6.3836700000        9.6979000000 H         0.0000000000         0.0000000000      -121.5459363527       72.2572966277       48.9746832880
atom         5.6571300000        6.9631500000       10.0662000000 C         0.0000000000         0.0000000000        42.3778316297      -78.9607940364      -62.3682694587
energy      -483.9461294281
charge 0
end
begin
comment generated by PY
lattice        11.4200000000         0.0000000000         0.0000000000
lattice         0.0000000000        10.5800000000         0.0000000000
lattice         0.0000000000         0.0000000000        13.1400000000
atom         5.1212700000        7.7608000000       10.3400400000 H         0.0000000000         0.0000000000        43.3521204418      -75.8413956694      -13.8288858095
atom         5.8731500000        6.0118100000       10.7131500000 H         0.0000000000         0.0000000000       -27.6763144123      113.1492919570      -77.1815986183
atom         6.1335900000        7.0355300000        9.0357700000 H         0.0000000000         0.0000000000       -52.8340586235      -19.0395780097      121.0782530651
atom         5.6609700000        6.9324000000       10.0629900000 C         0.0000000000         0.0000000000        37.1634950962      -18.2198805216      -30.0610457757
energy      -495.0491829492
charge 0
end
begin
comment generated by PY
lattice        11.4200000000         0.0000000000         0.0000000000
lattice         0.0000000000        10.5800000000         0.0000000000
lattice         0.0000000000         0.0000000000        13.1400000000
atom         5.3935900000        9.0766600000       12.3389000000 H         0.0000000000         0.0000000000       -52.6062753707       -4.8566051096       34.0222587437
atom         3.8010300000        9.3397400000        0.1831300000 H         0.0000000000         0.0000000000       108.5418068095       35.6678567543      -52.9613771786
atom         4.3728100000        0.8902500000       12.8713000000 H         0.0000000000         0.0000000000       111.7067549709      -29.9879952061      -42.6898832987
atom         5.3130400000        0.1537300000       12.5603000000 C         0.0000000000         0.0000000000      -198.1629887063       20.2312274695       87.2923668528
atom         4.7504400000        9.6708800000       12.8295000000 C         0.0000000000         0.0000000000        30.5126004994      -21.0705034440      -25.6600060371
energy      -712.0898315641
charge 0
end
begin
comment generated by PY
lattice        11.4200000000         0.0000000000         0.0000000000
lattice         0.0000000000        10.5800000000         0.0000000000
lattice         0.0000000000         0.0000000000        13.1400000000
atom         5.4100800000        8.7457100000       12.4327700000 H         0.0000000000         0.0000000000       -63.3521571115       87.4891385336       40.0950501165
atom         4.1010000000        9.2472100000        0.5148300000 H         0.0000000000         0.0000000000        79.8664343778       41.9368145981      -82.0710834414
atom         5.4818600000        0.7882300000       11.6789800000 H         0.0000000000         0.0000000000       -29.0755349763      -53.7030070531      103.7403295803
atom         5.1219500000        0.2659000000       12.5857700000 C         0.0000000000         0.0000000000       -19.6423784214     -119.0658463780      -68.8775202545
atom         4.8228500000        9.6024600000       12.8678700000 C         0.0000000000         0.0000000000        32.2156006769       43.3560676594        7.0890896053
energy      -736.2314902115
charge 0
end
begin
comment generated by PY
lattice        11.4200000000         0.0000000000         0.0000000000
lattice         0.0000000000        10.5800000000         0.0000000000
lattice         0.0000000000         0.0000000000        13.1400000000
atom         8.9955600000        8.7537300000        3.2342700000 H         0.0000000000         0.0000000000       -12.1042109583       -4.2985243379        5.3247100649
atom         8.4738700000       10.0966000000        3.8118100000 H         0.0000000000         0.0000000000         6.6302328661       76.8788285415      -29.7613391666
atom         7.1300400000        8.0563000000        5.0597800000 H         0.0000000000         0.0000000000        90.1600220812       68.0281298911      -27.1225866763
atom         7.5222000000        9.5221700000        5.8768500000 H         0.0000000000         0.0000000000        57.9759799094      -62.8458525544     -119.2477597846
atom         7.8544300000        8.8391600000        4.9989900000 C         0.0000000000         0.0000000000        -0.1721332805       40.2146513258      -49.6677286660
atom         8.6341300000        9.2321000000        3.9541500000 N         0.0000000000         0.0000000000      -142.4865625668     -118.0090331489      220.5013279507
energy      -927.5510970019
charge 0
end
begin
comment generated by PY
lattice        11.4200000000         0.0000000000         0.0000000000
lattice         0.0000000000        10.5800000000         0.0000000000
lattice         0.0000000000         0.0000000000        13.1400000000
atom         8.9622100000        8.6422400000        3.2880200000 H         0.0000000000         0.0000000000       -29.5481523661       73.6052380207       50.1108867082
atom         8.6976300000       10.2870300000        3.8062700000 H         0.0000000000         0.0000000000        -8.9667165849      -68.8754492293        5.2616418027
atom         8.1252500000        7.8289700000        5.5568000000 H         0.0000000000         0.0000000000       -25.8580005320       99.3172349574      -87.1804236929
atom         7.6215500000        9.4805800000        5.7600800000 H         0.0000000000         0.0000000000        15.2418341950      -69.8045159724      -93.8486255413
atom         7.8170700000        8.7576900000        4.9787800000 C         0.0000000000         0.0000000000       141.4654316676       90.7442651269       -6.2267285566
atom         8.5744000000        9.3155600000        3.9408900000 N         0.0000000000         0.0000000000       -92.3112566499     -124.9665257422      131.8976968196
energy      -922.1635742799
charge 0
end
begin
comment generated by PY
lattice        11.4200000000         0.0000000000         0.0000000000
lattice         0.0000000000        10.5800000000         0.0000000000
lattice         0.0000000000         0.0000000000        13.1400000000
atom         5.4627000000        4.9589300000       11.4917000000 H         0.0000000000         0.0000000000        64.0678159676       -1.2853254259       18.8753677878
atom         7.0263900000        4.7148900000       12.1977000000 H         0.0000000000         0.0000000000       -71.1117276748       27.7885330776      -34.2298166842
atom         7.9054200000        6.4272700000       10.5855000000 H         0.0000000000         0.0000000000       -86.2311589823     -113.1592432051      -28.0116830979
atom         6.5885300000        5.5843900000        9.4062700000 H         0.0000000000         0.0000000000        45.3945187672       -8.9835946171      128.4817907026
atom         7.8121500000        4.5359200000       10.0259000000 H         0.0000000000         0.0000000000       -76.3445439718       98.3249776915       55.4565507041
atom         7.1225600000        5.4258500000       10.3944000000 C         0.0000000000         0.0000000000        13.7745193637        4.8027481475       31.8490094711
atom         6.3977300000        5.2400500000       11.6236000000 N         0.0000000000         0.0000000000       110.4362712328       -7.4844829202     -172.3972628530
energy     -1043.9280849197
charge 0
end
begin
comment generated by PY
lattice        11.4200000000         0.0000000000         0.0000000000
lattice         0.0000000000        10.5800000000         0.0000000000
lattice         0.0000000000         0.0000000000        13.1400000000
atom         5.9800700000        6.2057100000       10.3821400000 H         0.0000000000         0.0000000000        87.0796960569       -2.8947013638       47.7966020691
atom         6.5533100000        6.4811600000       11.7509500000 H         0.0000000000         0.0000000000        15.3505092648      -28.5186248934      -40.4039814637
atom         7.1776400000        4.1896300000       11.9629700000 H         0.0000000000         0.0000000000       -38.6053336982       56.8594523445      -91.3433199540
atom         7.4142800000        4.1641500000       10.3236800000 H         0.0000000000         0.0000000000       -80.5822846778       43.1200601289       72.6132802815
atom         5.7786000000        4.1061600000       11.0876600000 H         0.0000000000         0.0000000000       104.1511502700       61.7513612271      -15.2524470424
atom         6.7595400000        4.5818400000       11.0599000000 C         0.0000000000         0.0000000000        39.2508107636       41.3740505259       17.5679661788
atom         6.8442300000        6.0408500000       10.9241100000 N         0.0000000000         0.0000000000      -126.6100569444     -171.6907061528        9.0566421766
energy     -1090.7162135503
charge 0
end
begin
comment generated by PY
lattice        11.4200000000         0.0000000000         0.0000000000
lattice         0.0000000000        10.5800000000         0.0000000000
lattice         0.0000000000         0.0000000000        13.1400000000
atom         7.3254300000        4.9185500000        9.6151200000 H         0.0000000000         0.0000000000         1.9977655850       40.3630019396        7.8031056597
atom         7.6192700000        6.5862100000        9.6409400000 H         0.0000000000         0.0000000000       -30.4268378752      -86.2459167236      -21.0118662404
atom         5.0809700000        6.6307000000        9.9408900000 H         0.0000000000         0.0000000000        63.1725020760      -58.8885680387       58.4767467075
atom         5.9682500000        7.1500100000       11.1887000000 H         0.0000000000         0.0000000000        17.8351203356      -99.1836818378      -79.5491364299
atom         5.8047500000        5.3973600000       11.2212000000 H         0.0000000000         0.0000000000        -7.3755140085       98.0584790999      -90.6187444231
atom         7.0086800000        5.7799900000        8.4031200000 H         0.0000000000         0.0000000000       -26.1606399247       11.7764001495       76.3768327745
atom         5.8510600000        6.2715200000       10.5431000000 C         0.0000000000         0.0000000000         3.0177374075       -0.4732298424       -6.3027686838
atom         6.9685300000        5.8139800000        9.4585000000 N         0.0000000000         0.0000000000       -22.1128889772       94.5866935421       54.8409122340
energy     -1122.2558685281
charge 0
end
begin
comment generated by PY
lattice        11.4200000000         0.0000000000         0.0000000000
lattice         0.0000000000        10.5800000000         0.0000000000
lattice         0.0000000000         0.0000000000        13.1400000000
atom         7.4408800000        5.2024400000        9.2340700000 H         0.0000000000         0.0000000000       -61.6482679506       80.5580754410        4.0701515434
atom         7.0575100000        7.0034100000        8.9413300000 H         0.0000000000         0.0000000000       -31.7371032528     -100.5821463408       32.9755961869
atom         6.4109300000        5.0284900000       11.1055900000 H         0.0000000000         0.0000000000       -33.3560411204      123.9042593530      -50.8329846413
atom         5.0873700000        6.2414400000       10.6661200000 H         0.0000000000         0.0000000000       126.3912934309      -23.1964084312       -5.0941325023
atom         6.5673800000        6.8111300000       11.4336900000 H         0.0000000000         0.0000000000       -32.5415589602      -82.0355095688     -103.5853450717
atom         5.9621100000        5.7206800000        8.7465000000 H         0.0000000000         0.0000000000        45.3270619427       18.6352846900       22.0808926211
atom         6.1691400000        6.0720800000       10.6955300000 C         0.0000000000         0.0000000000         9.9993352426      -35.3621719775      -18.5787551133
atom         6.7157400000        6.0175900000        9.3193500000 N         0.0000000000         0.0000000000       -22.4694640331       18.0787098948      118.9496151659
energy     -1136.6230848462
charge 0
end
begin
comment generated by PY
lattice        11.4200000000         0.0000000000         0.0000000000
lattice         0.0000000000        10.5800000000         0.0000000000
lattice         0.0000000000         0.0000000000        13.1400000000
atom        10.4226000000        2.8950900000       12.8771000000 H         0.0000000000         0.0000000000        52.4967915340       22.1600994721       49.1689563868
atom        10.7484000000        1.3585400000        1.0421500000 H         0.0000000000         0.0000000000        88.4116689448      -26.4962549824      -16.6303281507
atom         0.3782500000        3.6685600000        0.6426900000 H         0.0000000000         0.0000000000       -80.3967225767      -72.0833069298      -29.0812690351
atom        10.2869000000        3.1242800000        1.3489100000 H         0.0000000000         0.0000000000        85.3806197477      -32.4012486289      -82.3690497415
atom         1.1904200000        1.7319900000        0.5075200000 H         0.0000000000         0.0000000000      -112.8254708356       -7.0299767429       28.4242766013
atom        11.0422000000        2.8963100000        0.5306100000 N         0.0000000000         0.0000000000       -14.2927922530       76.4130622950       40.2935689696
atom         0.1667000000        1.7489800000        0.6565800000 N         0.0000000000         0.0000000000       -18.7592435682       39.3691936268       10.2047426089
energy      -997.8415642814
charge 0
end
begin
comment generated by PY
lattice        11.4200000000         0.0000000000         0.0000000000
lattice         0.0000000000        10.5800000000         0.0000000000
lattice         0.0000000000         0.0000000000        13.1400000000
atom        10.6711000000        5.1404100000        1.2467100000 H         0.0000000000         0.0000000000       -62.2746295261       10.9992483758      -66.0029568965
atom         0.7384000000        9.0024800000        1.0781700000 H         0.0000000000         0.0000000000        42.7048029863       71.1480054853      -32.7071577782
atom        10.4416800000        5.1563800000       12.7485200000 H         0.0000000000         0.0000000000       -44.8317721767       12.4249426205       90.8598459714
atom         9.1059400000        4.9106700000        0.6332100000 H         0.0000000000         0.0000000000        98.5693455608       37.6400597064      -12.3944100087
atom         1.0631700000       10.5526400000        1.2780400000 H         0.0000000000         0.0000000000        11.9859531001      -66.4505687465      -47.3743772386
atom        10.0137200000        5.3884100000        0.5148100000 N         0.0000000000         0.0000000000         8.7324312509      -60.8682235579      -12.3936674251
atom         1.2670500000        9.7780200000        0.6319400000 N         0.0000000000         0.0000000000       -54.8723026242       -4.9197290294       80.0039748519
energy      -959.8371781163
charge 0
end
begin
comment generated by PY
lattice        11.4200000000         0.0000000000         0.0000000000
lattice         0.0000000000        10.5800000000         0.0000000000
lattice         0.0000000000         0.0000000000        13.1400000000
atom         8.3228900000        1.8327600000       12.9337000000 H         0.0000000000         0.0000000000       -90.5510936225       -7.9249264125      -71.5098126160
atom        10.2996000000        1.5104800000        1.2846300000 H         0.0000000000         0.0000000000       -58.2158646318        6.7132129048     -100.9131248736
atom         8.2256000000        2.3602200000        1.7331400000 H         0.0000000000         0.0000000000        34.8059709246      -26.6954003188      -85.3523830842
atom         9.0733300000        3.2885400000        0.3304600000 H         0.0000000000         0.0000000000       -70.4198315223     -124.0504134413       13.4247908846
atom        10.3329000000        2.2079600000       12.8984000000 H         0.0000000000         0.0000000000       -56.3483130055      -99.1058274205       74.1154543908
atom         8.6989600000        2.2147200000        0.4983800000 N         0.0000000000         0.0000000000       102.3917367808      165.8765229556      112.2266892960
atom         9.7684500000        1.5181600000        0.3491400000 N         0.0000000000         0.0000000000       138.3311607580       85.1477100120       57.9617498164
energy      -963.3905995288
charge 0
end
begin
comment generated by PY
lattice        11.4200000000         0.0000000000         0.0000000000
lattice         0.0000000000        10.5800000000         0.0000000000
lattice         0.0000000000         0.0000000000        13.1400000000
atom         7.3143600000        3.5188800000        0.0869400000 H         0.0000000000         0.0000000000       -68.4474810206        0.3977892163       63.1801266940
atom         0.8410000000        0.7373900000        0.9515300000 H         0.0000000000         0.0000000000        -7.3678152893      -55.4778328531      -71.6504752703
atom         6.5343600000        3.0500200000        1.5064800000 H         0.0000000000         0.0000000000         2.0947426307       30.8633754046      -63.5672423463
atom         5.6876500000        3.5252600000        0.1391400000 H         0.0000000000         0.0000000000        88.6216267651        4.9965167757       66.0761367178
atom         1.5440100000       10.4615200000       12.8773200000 H         0.0000000000         0.0000000000       -75.5157221757       26.8207620846       45.1038739270
atom         6.5351400000        3.6605500000        0.7254100000 N         0.0000000000         0.0000000000       -22.4800726187      -36.1628792803      -65.7042162150
atom         0.6189000000        0.1071000000        0.1563100000 N         0.0000000000         0.0000000000        82.9739235581       28.5033020126       26.5160904867
energy      -960.1285298761
charge 0
end
begin
comment generated by PY
lattice        11.4200000000         0.0000000000         0.0000000000
lattice         0.0000000000        10.5800000000         0.0000000000
lattice         0.0000000000         0.0000000000        13.1400000000
atom         4.5258400000        0.8907200000        5.0653000000 H         0.0000000000         0.0000000000        84.4746859501       76.5652657129      -63.3021970895
atom         4.2498500000        9.8315600000        1.8893200000 H         0.0000000000         0.0000000000         5.7159622871       27.6635676824      104.4572685853
atom         5.1105500000        1.8392400000        3.8238400000 H         0.0000000000         0.0000000000        24.3520049125      -16.1312853198       49.6852442001
atom         6.1074400000        1.4317800000        5.1889000000 H         0.0000000000         0.0000000000       -24.0464229411       28.8410851028      -20.6274421550
atom         4.5471800000        2.5981800000        5.2005900000 H         0.0000000000         0.0000000000       105.5705124466      -89.5277338350      -36.2587101326
atom         4.6887200000        9.8320700000        2.9813600000 C         0.0000000000         0.0000000000        -7.2980482925       32.4704259898       54.4423263085
atom         4.4323900000       10.4252000000        4.0341200000 O         0.0000000000         0.0000000000       -11.6624475011      -77.7556366543     -153.6315052370
atom         5.2735300000        1.7507500000        4.7905200000 N         0.0000000000         0.0000000000      -177.0834891613       17.8819292416       65.2336161587
energy     -1094.9550652503
charge 0
end
begin
comment generated by PY
lattice        11.4200000000         0.0000000000         0.0000000000
lattice         0.0000000000        10.5800000000         0.0000000000
lattice         0.0000000000         0.0000000000        13.1400000000
atom         4.3116200000        0.1771200000        4.3245200000 H         0.0000000000         0.0000000000       -55.6379606413      -69.4139156925      -62.3312009864
atom         4.3795300000        8.8711300000        2.3278900000 H         0.0000000000         0.0000000000        54.3478833814       63.7918994706       79.3530989930
atom         5.4710600000        1.5528000000        5.5443800000 H         0.0000000000         0.0000000000        24.6578315735       83.0871048699      -63.6220928599
atom         5.1583600000        3.0818000000        5.4556600000 H         0.0000000000         0.0000000000        43.5934487340      -66.8987444519      -52.5304981173
atom         6.6306300000        2.6242100000        5.0098800000 H         0.0000000000         0.0000000000      -116.6754317376      -37.2443546814       -8.2017570547
atom         4.9395500000        9.5636300000        3.1309900000 C         0.0000000000         0.0000000000      -179.6852992470       -5.6141730436      -12.3717551481
atom         3.8641700000       10.1190100000        3.7452400000 O         0.0000000000         0.0000000000       184.9726785266       17.4991918759       -4.3683182564
atom         5.6069700000        2.3512600000        4.8855500000 N         0.0000000000         0.0000000000        44.4069561281       14.7955360711      124.0963262941
energy     -1134.7605371823
charge 0
end
begin
comment generated by PY
lattice        11.4200000000         0.0000000000         0.0000000000
lattice         0.0000000000        10.5800000000         0.0000000000
lattice         0.0000000000         0.0000000000        13.1400000000
atom         5.4444200000        5.8632200000       11.2026000000 H         0.0000000000         0.0000000000        75.5749476686     -101.4910729909      -35.9460417115
atom         4.2355900000        6.9759900000       11.7074000000 H         0.0000000000         0.0000000000       105.7324309996       42.6625615593       23.3801527551
atom         5.5292000000        7.9254200000       12.2616000000 H         0.0000000000         0.0000000000       -80.2271506631     -109.8868978823      -64.9951092445
atom         5.5030500000        4.0708700000       10.9242000000 H         0.0000000000         0.0000000000        70.1593268065      100.1951658398      -21.3719880795
atom         7.6708300000        4.2685400000        9.7155000000 H         0.0000000000         0.0000000000       -41.4892414633      110.2927605030       81.4814920120
atom         7.7758600000        5.6751700000       11.1242000000 H         0.0000000000         0.0000000000       -35.4373114220      -38.7593630358     -121.2173952514
atom         7.1814300000        5.7458400000        9.3317100000 H         0.0000000000         0.0000000000         2.0810703496      -17.4827047278       92.3304600262
atom         7.2330700000        5.2700200000       10.2446000000 C         0.0000000000         0.0000000000       -84.7139461968     -101.7209946080       42.2810241712
atom         5.1563800000        7.1416900000       11.7863000000 O         0.0000000000         0.0000000000       -32.0716107471       75.5063811432       42.5530033679
atom         6.0376500000        4.9739400000       10.8426000000 N         0.0000000000         0.0000000000        20.3708709931       40.6976423778      -38.4977424635
energy     -1459.8805508520
charge 0
end
begin
comment generated by PY
lattice        11.4200000000         0.0000000000         0.0000000000
lattice         0.0000000000        10.5800000000         0.0000000000
lattice         0.0000000000         0.0000000000        13.1400000000
atom         7.2962900000        2.8713600000        9.4642600000 H         0.0000000000         0.0000000000       -40.0216687890       30.0862165266       51.3876122655
atom         5.0562900000        9.3576300000       11.6472800000 H         0.0000000000         0.0000000000       -58.7027910025      -36.0231061737      122.3438066372
atom         5.4105500000        8.9521300000       13.0475300000 H         0.0000000000         0.0000000000      -110.6455002933       23.3045818416      -83.1757798189
atom         5.8201200000        3.1115000000        9.7593000000 H         0.0000000000         0.0000000000        78.3123831805       18.6640956193       39.0723606334
atom         6.6071000000        5.2672400000        9.3562300000 H         0.0000000000         0.0000000000        38.1142525259      -61.1765509664      101.4414858030
atom         8.1035500000        4.8688900000       10.1514200000 H         0.0000000000         0.0000000000      -126.4957584234      -24.3226288667       12.8937296686
atom         6.6775100000        5.0520400000       11.1646400000 H         0.0000000000         0.0000000000        31.7873214957      -28.1925005266     -103.0375190889
atom         7.0093600000        4.7106200000       10.2200900000 C         0.0000000000         0.0000000000        12.5858702881      -85.2774478600      -14.7166337363
atom         4.6141900000        9.1066800000       12.4900100000 O         0.0000000000         0.0000000000       169.4077738856       12.7824880945      -39.1427439427
atom         6.7326700000        3.2828800000       10.1791900000 N         0.0000000000         0.0000000000         5.6955900972      150.1259878373      -87.0489215860
energy     -1491.4550179657
charge 0
end
begin
comment generated by PY
lattice        11.4200000000         0.0000000000         0.0000000000
lattice         0.0000000000        10.5800000000         0.0000000000
lattice         0.0000000000         0.0000000000        13.1400000000
atom        10.4967000000        0.1142000000       11.8336000000 H         0.0000000000         0.0000000000        26.6783813881       -0.4670492237       23.4977796283
atom         0.1237000000        9.7644400000       12.8637000000 H         0.0000000000         0.0000000000       -30.6232112753      125.5540376094      -77.9008847643
atom        11.1497000000        0.6436600000        1.2172300000 H         0.0000000000         0.0000000000       -82.0239874899       -5.6335612908      -82.9168617760
atom        10.8170000000        9.5127600000        3.2053400000 H         0.0000000000         0.0000000000      -119.9027654997      -64.3081216890     -134.6094455856
atom         9.7355500000        8.6204700000        1.9460000000 H         0.0000000000         0.0000000000        58.9167644891       51.8420010165       66.7556241539
atom         9.8678000000       10.4810000000        1.4594700000 H         0.0000000000         0.0000000000        65.1481337972       -0.0704045787     -129.9167184823
atom        10.1030000000        9.3356400000        2.4108300000 O         0.0000000000         0.0000000000        54.2521278504       26.3550995987       67.6150087346
atom        11.1428000000        0.3261200000       12.5185000000 N         0.0000000000         0.0000000000       -44.0988895469     -186.7956472190      123.9226537869
atom        10.4066000000        0.4531100000        0.4919500000 N         0.0000000000         0.0000000000        71.6414104974       53.5217776594      143.5381316749
energy     -1231.6391292820
charge 0
end
begin
comment generated by PY
lattice        11.4200000000         0.0000000000         0.0000000000
lattice         0.0000000000        10.5800000000         0.0000000000
lattice         0.0000000000         0.0000000000        13.1400000000
atom        10.5019400000       10.3786400000       12.1915300000 H         0.0000000000         0.0000000000        61.5276657999       69.2552508896       17.7497906267
atom         0.3646300000        0.3815500000        0.0186900000 H         0.0000000000         0.0000000000       -73.2946112411        3.4186929982     -111.4918308009
atom        11.4184800000        2.4058100000       12.0074400000 H         0.0000000000         0.0000000000       -70.4687985997      -42.1964109388       35.1203164613
atom        10.5224600000        8.1083800000        4.3290200000 H         0.0000000000         0.0000000000      -117.1047066108      -31.8245432735      -67.8302241776
atom         8.9420200000        8.1642300000        3.8498200000 H         0.0000000000         0.0000000000       128.9607198144      -39.0870095503        7.9656893761
atom        10.5074200000        2.2033400000        0.1775700000 H         0.0000000000         0.0000000000        21.7590027185      -46.3176004059      -89.0615336658
atom         9.8117100000        7.7550500000        3.7729600000 O         0.0000000000         0.0000000000       -11.8508853443       70.9243186694       59.9163582510
atom        11.2435100000        0.4939600000       12.2367600000 N         0.0000000000         0.0000000000       -45.4956690618       76.0661385549      120.5042530364
atom        10.6340200000        1.8711600000       12.3536000000 N         0.0000000000         0.0000000000       106.0142572869      -60.2200656576       27.1153577712
energy     -1319.1066360750
charge 0
end
begin
comment generated by PY