begin
comment generated by PY
lattice        11.4200000000         0.0000000000         0.0000000000
lattice         0.0000000000        10.5800000000         0.0000000000
lattice         0.0000000000         0.0000000000        13.1400000000
atom         5.2330900000        8.4783100000        7.3339800000 H         0.0000000000         0.0000000000        33.8247611787      -73.7485621236       10.9186337071
atom         8.1819300000        7.2047300000        9.1887600000 H         0.0000000000         0.0000000000       -97.8952502889      -84.1967940288      -43.2988060661
atom         8.2814500000        7.1429400000        4.9553300000 H         0.0000000000         0.0000000000       -22.6907764349      -33.6685728960     -111.7086713327
atom         9.4630600000        4.1805200000        8.9330900000 H         0.0000000000         0.0000000000      -128.2078518840      -29.4024269202       31.6757127617
atom         8.2034300000        7.9513100000        2.6053400000 H         0.0000000000         0.0000000000       146.3936814811      -85.5180090853       28.0602361725
atom        10.4141000000        5.4277100000        8.3834900000 H         0.0000000000         0.0000000000       -85.3037783018       29.6253008350      -52.7755700753
atom        11.3663000000        6.8264500000        3.0558900000 H         0.0000000000         0.0000000000      -113.5844878104       15.5392054826      -66.1793076155
atom         9.0315800000        8.3873400000        7.5590200000 H         0.0000000000         0.0000000000      -119.9619756951     -122.8133259330      -34.2864048529
atom         9.2472500000        5.4922400000        4.7725400000 C         0.0000000000         0.0000000000       236.1200550577     -154.8438414355      -43.8883637988
atom         5.9620600000        7.7851900000        7.3572600000 C         0.0000000000         0.0000000000       165.3249834947      -19.1073112837      -10.3886636777
atom         7.3181900000        6.3037300000        8.6506700000 C         0.0000000000         0.0000000000        75.1195436030       53.8643759888      -25.4985800648
atom         8.1756500000        5.3585400000        8.2913000000 C         0.0000000000         0.0000000000        88.6900839939      -50.3850575479      105.6206891645
atom         7.2056900000        7.9821900000        6.7152100000 C         0.0000000000         0.0000000000       -58.4093065482       -2.8878319344      -98.4242805259
atom        10.4422000000        6.9154700000        2.3195900000 C         0.0000000000         0.0000000000         4.1028599107      -17.9858464440       99.4670255453
atom        11.0945000000        6.2564800000        1.2471300000 C         0.0000000000         0.0000000000       -81.7027807170      126.9629211290     -102.1707402126
atom         0.0532100000        6.3489100000        0.1091400000 O         0.0000000000         0.0000000000       -46.2468526461      -32.7875147384      207.8005647761
atom         9.7265200000        5.8047700000        7.8283600000 O         0.0000000000         0.0000000000       -42.4607816112      -58.2490879986      101.9909214782
atom         7.2533300000        8.1565800000        5.4011200000 O         0.0000000000         0.0000000000        15.8554062565      -29.6475562622      204.3194223705
atom         8.2469900000        7.5853700000        7.3855500000 O         0.0000000000         0.0000000000        52.7205014303      170.0480733697      -62.6045638821
atom         6.2045200000        6.6311000000        8.0991700000 O         0.0000000000         0.0000000000        19.4365654928       53.5082142380       13.5732292521
atom         8.4957400000        4.0376400000        9.1841700000 O         0.0000000000         0.0000000000        96.4708993010      151.3626685406     -131.7543723091
atom         8.3740000000        6.4319000000        3.9300700000 N         0.0000000000         0.0000000000       205.1245789947      -35.1322837643      177.9409091801
atom        10.2189000000        4.6612200000        5.0999700000 N         0.0000000000         0.0000000000      -360.5380601250      304.7097841633     -114.9195938875
atom         9.2713400000        7.3452800000        2.9925100000 N         0.0000000000         0.0000000000        17.8370149407      -75.2463754429      -83.4496950672
energy     -4139.4288895073
charge 0
end
begin
comment generated by PY
lattice        11.4200000000         0.0000000000         0.0000000000
lattice         0.0000000000        10.5800000000         0.0000000000
lattice         0.0000000000         0.0000000000        13.1400000000
atom         5.6041700000        6.9080200000        7.0430700000 H         0.0000000000         0.0000000000       106.1531994999       34.2177262034       34.3935474399
atom         8.1091300000        6.5428300000       10.0916800000 H         0.0000000000         0.0000000000        18.8786881498      -38.3447760430     -121.9516664316
atom         7.5318700000        7.0747700000        3.9547800000 H         0.0000000000         0.0000000000        65.5262433542      -24.3167389215      -19.0488344632
atom         9.3499900000        4.6397000000        6.8072000000 H         0.0000000000         0.0000000000       -40.0365328505      -27.4975587734       67.6970133513
atom         8.8182500000        7.6537900000        1.8991300000 H         0.0000000000         0.0000000000        36.9195220467      -15.3018793281       93.6890425509
atom         9.6164600000        3.6965000000        9.7481800000 H         0.0000000000         0.0000000000       -43.7678184477      110.8424782110       13.1222774190
atom         0.0311600000        7.4688000000        3.2331500000 H         0.0000000000         0.0000000000       -94.4349243755      -40.1854047303      -72.6836679665
atom         8.2229100000        9.2689900000        5.3885300000 H         0.0000000000         0.0000000000       -39.8823525730      -26.5905901738      117.7401124892
atom         8.8851500000        5.7812400000        4.4610000000 C         0.0000000000         0.0000000000        69.3583416597      -79.8287446896       50.0364411901
atom         6.6018700000        7.2523100000        7.3224900000 C         0.0000000000         0.0000000000       -39.7930221950       -2.0974567854      -13.7093005429
atom         8.1767500000        6.2677900000        9.0191900000 C         0.0000000000         0.0000000000       -60.3074125980      -47.4209365958       34.9596603346
atom         8.7784600000        5.0713500000        8.7203700000 C         0.0000000000         0.0000000000         1.2460305539        7.8263069786       46.3938588672
atom         7.0463300000        8.0832800000        6.2799400000 C         0.0000000000         0.0000000000        -3.4787601335      -40.4184263086      -39.0684166932
atom        10.6411900000        7.1178400000        2.5814100000 C         0.0000000000         0.0000000000       -89.6792224243        0.6299904475      -46.2012948496
atom        10.9401400000        6.3806100000        1.4814900000 C         0.0000000000         0.0000000000        25.7023043942      -10.8707152964       23.7790001903
atom        11.3017300000        5.7049100000        0.5940200000 O         0.0000000000         0.0000000000       -67.4465671863      116.1999683102      143.2305244238
atom         9.2141600000        4.5696800000        9.9171300000 O         0.0000000000         0.0000000000        17.7498774886      -76.9925495317     -132.2150189052
atom         6.5203100000        7.7561000000        5.1907100000 O         0.0000000000         0.0000000000        68.7864494109       53.0525477190      111.2780296564
atom         7.9650900000        9.0992700000        6.3264500000 O         0.0000000000         0.0000000000       -53.2475509798      -84.9097559305     -107.5997136057
atom         6.9385000000        6.8278300000        8.5290800000 O         0.0000000000         0.0000000000        77.7575545547       -1.0005158587      -83.0965235141
atom         9.0455600000        4.2265100000        7.6812900000 O         0.0000000000         0.0000000000        -5.5931747864      138.0490686556       36.7681478463
atom         8.3749700000        6.5942900000        3.5966000000 N         0.0000000000         0.0000000000       112.2234177515      -67.7528038846      130.8390401815
atom         9.3868600000        4.9924900000        5.1830800000 N         0.0000000000         0.0000000000      -166.1024812465      253.9632298622     -212.7352214149
atom         9.2881800000        7.5731100000        2.8142400000 N         0.0000000000         0.0000000000       103.4069222966     -131.4006220747      -55.5738688133
energy     -4615.1309474346
charge 0
end
begin
comment generated by PY
lattice        11.4200000000         0.0000000000         0.0000000000
lattice         0.0000000000        10.5800000000         0.0000000000
lattice         0.0000000000         0.0000000000        13.1400000000
atom         0.2246200000        3.7251300000       12.0556000000 H         0.0000000000         0.0000000000       -81.1688366569       22.1630817184       61.2810262963
atom         4.4593400000        2.2359300000       12.9118000000 H         0.0000000000         0.0000000000       -98.1109996250      -16.1502249676       68.6358558900
atom         1.6516900000        2.5420500000        1.8600000000 H         0.0000000000         0.0000000000        24.1608441898       61.9946561058     -107.2769451427
atom        11.0541000000        4.6344600000        0.2419500000 H         0.0000000000         0.0000000000       -19.9570582347      -85.1415900916      -58.0684789478
atom         4.1711100000        3.7768200000        3.6659000000 H         0.0000000000         0.0000000000        46.6293096543      -62.7203485239     -119.1524711475
atom         9.5155400000        2.3436200000       11.5211000000 H         0.0000000000         0.0000000000       -58.9234202256       90.6888795866      -46.5704005405
atom         5.5090400000        3.3515000000        2.3602600000 H         0.0000000000         0.0000000000       -84.9888244934       31.1594126922       19.6990331600
atom         0.2233600000        1.4535900000        1.7084600000 H         0.0000000000         0.0000000000        37.5575504991       74.0956690056     -122.9138397818
atom         2.6427900000        5.6711100000        0.4464000000 H         0.0000000000         0.0000000000        76.1718745394     -126.3882310221       40.6829420135
atom         4.2334600000        5.2471900000        0.2832900000 H         0.0000000000         0.0000000000       -71.4915638697     -105.4791860909        6.5543514446
atom         2.8499700000        1.3823900000        0.2792200000 H         0.0000000000         0.0000000000        95.4378561770       84.6173641820       20.4014673445
atom        10.8188000000        3.8948500000       12.6896000000 C         0.0000000000         0.0000000000      -108.9166000932      -43.1434247117      -76.3322046181
atom         3.5884200000        2.1584300000        0.4080600000 C         0.0000000000         0.0000000000       -28.0032541257      167.2639797079       93.2303816163
atom         9.0301200000        3.2954300000       11.1309000000 C         0.0000000000         0.0000000000        32.8469344774      125.6477230043       28.4001648978
atom         4.4915400000        3.4489000000        2.5346500000 C         0.0000000000         0.0000000000      -135.3680258670        6.5366485245      -77.6804580473
atom         0.4182600000        2.1567400000        0.7234600000 C         0.0000000000         0.0000000000      -138.5563365223      138.8190491121       -6.7611720211
atom         3.4413200000        4.6342300000        0.6457300000 C         0.0000000000         0.0000000000      -102.7174328333        0.3712229699      128.6646957887
atom         8.1803000000        3.5265600000       10.1886000000 O         0.0000000000         0.0000000000       158.7027307277      -44.9723797032      181.8194641050
atom         4.0899200000        6.0861200000        3.7423600000 O         0.0000000000         0.0000000000      -173.1778419711      -43.8780295064     -277.6393904772
atom         2.2909700000        6.4906700000        2.2321000000 O         0.0000000000         0.0000000000       278.5021930540     -127.6878007578      103.7913214271
atom         9.6663300000        4.3487000000       11.9572000000 N         0.0000000000         0.0000000000        79.8796663750     -245.0333581768      -26.5615531198
atom         4.1941400000        2.1955300000        1.8951700000 N         0.0000000000         0.0000000000       -33.5950899714      171.0265686373      -57.9176573217
atom        10.7110000000        2.3953800000        0.1643700000 N         0.0000000000         0.0000000000       282.1643152798      116.6068528226       55.8930460280
atom         2.7885400000        3.3882300000        0.2259700000 N         0.0000000000         0.0000000000        87.2436989808      -68.4063356832       93.2635832029
atom         1.5200400000        2.9801300000        0.8917200000 N         0.0000000000         0.0000000000       -39.1675166860     -125.6794732619       70.0969793051
atom         3.6885900000        4.5823500000        2.0293100000 N         0.0000000000         0.0000000000        40.6090266578        5.0773636987     -109.8677570138
atom         3.4277200000        5.8885300000        2.6704900000 N         0.0000000000         0.0000000000       -65.7737160449       -1.3615157618      114.3404743298
energy     -5120.6690377938
charge 0
end
begin
comment generated by PY
lattice        11.4200000000         0.0000000000         0.0000000000
lattice         0.0000000000        10.5800000000         0.0000000000
lattice         0.0000000000         0.0000000000        13.1400000000
atom         0.7863800000        3.3470700000       11.4446700000 H         0.0000000000         0.0000000000      -102.4737739253       22.9620629791       77.0433967765
atom         4.4548000000        2.9685400000       12.7841900000 H         0.0000000000         0.0000000000       -70.7166932445      -54.2453705383       79.3999856700
atom         2.5504300000        2.2832000000        1.9266700000 H         0.0000000000         0.0000000000       -45.3764569539       11.1859762129      -52.9872949850
atom         0.2493200000        4.5819500000       12.5641500000 H         0.0000000000         0.0000000000       -38.0007812110     -116.6764050763      -55.5890561823
atom         4.7640300000        3.8551000000        3.0691300000 H         0.0000000000         0.0000000000       -34.7968821130      -13.8991983987     -116.0300046438
atom        10.2125100000        1.8531600000       12.9950800000 H         0.0000000000         0.0000000000        93.9693038297      116.3577942120       13.4480249251
atom         4.8973600000        4.4238700000        1.3172100000 H         0.0000000000         0.0000000000       -50.6090743960      -80.9270943817       84.1655704590
atom         0.0093700000        1.6111100000        1.8531400000 H         0.0000000000         0.0000000000        40.0498204256       62.7927610176     -103.4430506563
atom         1.4537400000        5.1564100000        1.0741500000 H         0.0000000000         0.0000000000       125.5213489516      -65.7208564237      -28.1693085086
atom         3.0881300000        5.2882400000        0.2189000000 H         0.0000000000         0.0000000000       -63.4871223328      -78.6204494298       84.5238542079
atom         3.5612800000        1.4078000000        0.0029400000 H         0.0000000000         0.0000000000        21.7909047999      122.6791714009       42.4100639767
atom        11.3500100000        3.6398800000       12.0528700000 C         0.0000000000         0.0000000000       -81.6188492520        4.7440149300        4.3443451129
atom         3.8429900000        2.4123500000        0.3610800000 C         0.0000000000         0.0000000000        29.6226767023       25.6307972800      126.3993727956
atom         9.0926100000        3.6290200000       11.2187700000 C         0.0000000000         0.0000000000       117.6544346201       83.7687583023      -68.2123043291
atom         4.4044300000        3.7280700000        2.0710500000 C         0.0000000000         0.0000000000       -73.1553818364      -32.1109447550      -15.8507768848
atom         0.4049600000        2.2050800000        1.0411900000 C         0.0000000000         0.0000000000       114.8193790887      120.9499676455      -54.0353858004
atom         2.4955400000        4.6440800000        0.8916600000 C         0.0000000000         0.0000000000        -5.0050864243      -81.1464408221       63.2561651647
atom         7.9460300000        3.5453300000       10.9418000000 O         0.0000000000         0.0000000000       176.8873859211        3.0414268692       53.8940754232
atom         4.0454700000        5.8191200000        3.8110100000 O         0.0000000000         0.0000000000      -175.5998448871      -22.3391501546     -250.9269779540
atom         2.7706800000        6.7117500000        2.2191000000 O         0.0000000000         0.0000000000       130.9582870550     -219.7927225141      136.2985082837
atom        10.2358400000        3.9284600000       11.2040900000 N         0.0000000000         0.0000000000      -117.7163005640     -138.9363493131      156.3322275844
atom         4.2823500000        2.4006700000        1.6624400000 N         0.0000000000         0.0000000000      -122.6203900971      226.8980484362     -162.3272790477
atom        10.9585800000        2.6876100000        0.0338600000 N         0.0000000000         0.0000000000       124.3904352968      -78.6637792936       32.3052356324
atom         2.3350900000        3.3698200000        0.2993000000 N         0.0000000000         0.0000000000        35.2136633015       31.5146281789      164.1192327454
atom         1.6644700000        2.5512000000        1.2165100000 N         0.0000000000         0.0000000000      -145.3217746261        6.9431240631      -86.0585755157
atom         3.0666900000        4.5159600000        2.2177600000 N         0.0000000000         0.0000000000       107.3291904848       49.4712992184     -153.2898219620
atom         3.3282900000        5.7520000000        2.7886400000 N         0.0000000000         0.0000000000         8.3240594601       94.1594809692       29.0597971750
energy     -5470.2328022445
charge 0
end
begin
comment generated by PY
lattice        11.4200000000         0.0000000000         0.0000000000
lattice         0.0000000000        10.5800000000         0.0000000000
lattice         0.0000000000         0.0000000000        13.1400000000
atom         9.1404100000        0.2481700000       11.6607000000 H         0.0000000000         0.0000000000        41.1727891860      127.8306800651       65.2734171169
atom         9.8989600000       10.4840000000        6.4671800000 H         0.0000000000         0.0000000000        42.2234155414      -15.4530615069       11.0874643336
atom        10.2344000000        3.2580400000       11.5793000000 H         0.0000000000         0.0000000000       -55.9465664301      -50.8767733397     -128.0686954847
atom         9.6618000000        1.7941200000       11.4347000000 H         0.0000000000         0.0000000000       -12.2258565599      -93.8923825720       70.0482823391
atom         9.9103500000        2.2545100000        8.3796300000 H         0.0000000000         0.0000000000       -19.9506484157       52.2019033022      -24.5207107596
atom         8.9875600000        2.8391400000        9.8468600000 C         0.0000000000         0.0000000000      -123.8086668707      -15.5670153324      153.8273393054
atom         0.0206300000        0.6984200000        7.2772000000 C         0.0000000000         0.0000000000       -32.8728507114       94.1297949208     -263.4337544125
atom         8.8648200000        2.2937600000        0.0240000000 C         0.0000000000         0.0000000000      -264.2858880347      -56.8886025729      -91.6056447712
atom         1.8119200000        1.3994800000        5.3803800000 C         0.0000000000         0.0000000000       169.1817015946      -84.0305220424      -21.2481650800
atom         9.3018500000        3.0154800000        8.7268700000 O         0.0000000000         0.0000000000        -3.7488147176      -72.6499694282       -9.1065112279
atom         3.0530400000        0.9477900000        5.3689900000 O         0.0000000000         0.0000000000      -218.4502826349       79.4453152965       17.4202630888
atom         9.7906200000        2.7259000000        0.3809100000 O         0.0000000000         0.0000000000        71.9627504791       45.4858122014       34.6317959602
atom         1.2789100000        0.7537600000        6.8474700000 O         0.0000000000         0.0000000000      -151.6303378576        9.8325896316       55.4586341740
atom         7.6778800000        2.2329400000       12.9100000000 O         0.0000000000         0.0000000000       178.3796448263       17.8030815493       57.4523965293
atom         7.7709200000        2.5630000000       10.4551000000 O         0.0000000000         0.0000000000       214.6889888506       52.8066360474     -119.8371365643
atom        10.0330000000        2.9320900000       10.6037000000 O         0.0000000000         0.0000000000        -5.2640923050       26.7042317931      103.6079299399
atom         9.4940900000        1.0636400000       12.1505000000 O         0.0000000000         0.0000000000        -8.3396253868      -36.6640023823     -141.4082806158
atom        10.6216000000        1.8039100000        7.2728800000 O         0.0000000000         0.0000000000       123.2300188343     -169.9712386153       65.7650650271
atom        10.7499000000       10.1737000000        6.4887500000 O         0.0000000000         0.0000000000        32.5185167999      113.7840320335      100.7825673241
atom         1.1090000000        1.9006700000        4.6551400000 O         0.0000000000         0.0000000000        23.2139460530      -24.0408403871       63.8508103489
energy     -3538.8750934316
charge 0
end
begin
comment generated by PY
lattice        11.4200000000         0.0000000000         0.0000000000
lattice         0.0000000000        10.5800000000         0.0000000000
lattice         0.0000000000         0.0000000000        13.1400000000
atom         9.1906700000       10.1662200000       11.3743500000 H         0.0000000000         0.0000000000        78.8152196103     -118.8508638356      -10.3188479015
atom        10.5705200000        0.0390100000        5.7815100000 H         0.0000000000         0.0000000000        15.3045892401      -53.4622357736      111.2877152027
atom        10.7983900000        3.4201900000       10.5679500000 H         0.0000000000         0.0000000000       -53.4319521445      -21.9917472809     -117.5179622285
atom        10.6010700000        9.5948500000       11.4842500000 H         0.0000000000         0.0000000000      -132.5976458047      -30.6909921174      -26.8929490760
atom         9.2969400000        2.6182000000        7.9945400000 H         0.0000000000         0.0000000000       -95.3468130791       60.6094880406       68.4773014497
atom         9.0499400000        3.2338400000        9.7394200000 C         0.0000000000         0.0000000000       -26.7190961038      -29.6870038879       41.2483050276
atom        11.0790100000        0.4848400000        7.5346800000 C         0.0000000000         0.0000000000        -6.6229062276       -1.0729089875       26.7693694236
atom         8.2004700000        2.9267900000        1.0323700000 C         0.0000000000         0.0000000000         7.9706664775       -7.5798762546       68.0366499524
atom         2.7774100000        1.6687000000        3.9647000000 C         0.0000000000         0.0000000000         0.5576933791       -8.6098578533       29.5349105983
atom         8.5327600000        3.0541000000        8.5295100000 O         0.0000000000         0.0000000000       156.5248060166      -40.8304381312       59.7899365224
atom         3.9368500000        1.4152600000        4.0827000000 O         0.0000000000         0.0000000000      -216.1649305547       49.3519772866      -28.0165257193
atom         8.8441600000        3.5601400000        0.3084100000 O         0.0000000000         0.0000000000       -96.7794528045      -90.6549556659       94.3816633252
atom         0.0321900000        0.1063900000        8.6869700000 O         0.0000000000         0.0000000000       -50.5262841808       52.4810417122     -164.2511152815
atom         7.6421000000        2.3379100000        1.9022100000 O         0.0000000000         0.0000000000        88.9412438164       99.0421619272     -160.2308849188
atom         8.3459100000        3.2542500000       10.7821400000 O         0.0000000000         0.0000000000       133.0999950677        6.7015632602     -186.9409001062
atom        10.4477300000        3.2769500000        9.6488700000 O         0.0000000000         0.0000000000      -107.6419682501       21.0746759025      130.9380346709
atom         9.6777100000        9.3049300000       11.2909300000 O         0.0000000000         0.0000000000        53.8761241173      149.7154204697       36.4533796883
atom        11.0182900000        1.6949400000        7.2477900000 O         0.0000000000         0.0000000000         6.1985268068     -133.2653219914       40.2747045783
atom        10.6939200000       10.1483600000        6.6362000000 O         0.0000000000         0.0000000000        29.0490518332      138.2259947909      -11.5571615379
atom         1.6070200000        1.9001400000        3.9426200000 O         0.0000000000         0.0000000000       215.4778536418      -40.5825392960       -1.4489570147
energy     -3671.8551052987
charge 0
end
begin
comment generated by PY
lattice        11.4200000000         0.0000000000         0.0000000000
lattice         0.0000000000        10.5800000000         0.0000000000
lattice         0.0000000000         0.0000000000        13.1400000000
atom         8.4614500000        0.1434800000        2.9418100000 H         0.0000000000         0.0000000000       -80.3178224475       40.5841130619      -76.4936207801
atom         7.2420500000        7.8831400000        1.1638100000 H         0.0000000000         0.0000000000        68.1607136649      -45.4648526099       -6.6175375854
atom         0.4635200000        7.8836900000        0.4343200000 H         0.0000000000         0.0000000000      -145.6447783798      -15.1116353344      -38.5205605072
atom         8.6581900000        3.1916700000       10.8609000000 H         0.0000000000         0.0000000000       -73.5687789530       80.5757236027      116.4168197769
atom         0.2386100000        9.0142000000       11.7672000000 H         0.0000000000         0.0000000000       -97.5010333834      -28.9932005694       78.8860235033
atom         7.5116200000        9.9472100000        1.4946200000 C         0.0000000000         0.0000000000       -43.6538364615      125.2783212941      161.9063834640
atom         7.7273600000        6.2846600000        2.1268400000 C         0.0000000000         0.0000000000       -44.2562627004       49.3629172361      -10.8568414959
atom        10.7852000000        8.8927700000       12.4804000000 C         0.0000000000         0.0000000000       106.0655201888     -107.1595341642      123.1832477049
atom         5.8907000000        4.2596600000        1.0512100000 C         0.0000000000         0.0000000000       -31.5698486426      -59.1605694673      131.9276705649
atom         7.0922400000        3.3593600000       12.2805000000 C         0.0000000000         0.0000000000       -28.5012069348      278.1292583178       29.8976769432
atom         8.9542400000        9.4523700000        0.8326600000 O         0.0000000000         0.0000000000       158.5870969074      183.1066865905      -54.8329598231
atom        10.3492000000       10.2077000000       12.4094000000 O         0.0000000000         0.0000000000       -58.1540844131     -115.1563277446      224.9428167040
atom         6.7132900000        9.1044400000        1.1057600000 O         0.0000000000         0.0000000000       119.5362545162      128.1236186431       44.5415246052
atom         7.6259600000        0.4424000000        2.3252800000 N         0.0000000000         0.0000000000        48.3071191628     -305.0531380997     -142.8979279876
atom         8.0717500000        7.0889600000        1.0950800000 N         0.0000000000         0.0000000000      -144.8753521944     -154.5994480022      256.4726049589
atom         7.3058300000        5.6721700000        3.0393900000 N         0.0000000000         0.0000000000       114.3788995313      153.0420066515     -245.6742192368
atom         8.0518000000        3.8424100000       11.7038000000 N         0.0000000000         0.0000000000      -185.6999852369     -241.0321322587       26.4687039431
atom         5.7223300000        4.5285000000        2.2249300000 N         0.0000000000         0.0000000000        63.1865437444      -79.3603949693     -403.1418232782
atom        10.6986000000        7.9306100000        0.2520500000 N         0.0000000000         0.0000000000       143.4730972189      266.6174114839     -196.7881846699
atom         5.9487900000        3.7148000000       12.9108000000 N         0.0000000000         0.0000000000       263.7901382535       24.5764664482      102.2448443663
atom         9.9431200000       10.4304000000        0.5484600000 N         0.0000000000         0.0000000000      -151.7412626226     -178.2750540656     -121.0351063369
energy     -4343.1126625636
charge 0
end
begin
comment generated by PY
lattice        11.4200000000         0.0000000000         0.0000000000