begin
comment generated by PY
lattice        10.1594880000         0.0000000000         0.0000000000
lattice         0.0000000000        10.1594880000         0.0000000000
lattice         0.0000000000         0.0000000000        10.1594880000
atom         1.7124400000       10.1584000000       10.1466000000 O         0.0000000000         0.0000000000       -41.8027543783       25.5260197369       37.2774367588
atom         1.6099700000        1.6912800000        1.6804400000 O         0.0000000000         0.0000000000        16.6623594296       24.7598022959      -59.9519469422
atom        10.0420100000       10.0796600000        1.7771000000 O         0.0000000000         0.0000000000        10.9638657623      -44.6543355208      -76.6852248243
atom         0.1696200000        1.9601800000       10.0911800000 O         0.0000000000         0.0000000000        -6.1476932376     -165.2084939932       11.6741873764
atom         1.5223700000        0.0239200000        3.3831900000 O         0.0000000000         0.0000000000        38.2093731879      234.7549327563      117.4132102172
atom         1.5964300000        1.7045700000        4.9232300000 O         0.0000000000         0.0000000000        -1.1418921667      -22.3065824114       18.8020080984
atom        10.0585900000        0.1118400000        5.0870900000 O         0.0000000000         0.0000000000        64.2750461249       20.7295245983      -29.3289263658
atom        10.1177700000        1.5860800000        3.3092900000 O         0.0000000000         0.0000000000       -18.0719254856       59.7373308801       -8.0260991964
atom         1.5324000000       10.0080400000        6.7141800000 O         0.0000000000         0.0000000000       214.1736492703      269.3490551837      -22.2370214125
atom         1.7987600000        1.7230800000        8.3813800000 O         0.0000000000         0.0000000000       -64.0567124723      -21.0502118915      -17.7069751607
atom        10.1465600000       10.1376700000        8.5083600000 O         0.0000000000         0.0000000000        27.4821616859        8.5376474079       46.8706042189
atom         0.0532200000        1.6813600000        6.7735200000 O         0.0000000000         0.0000000000      -113.4613884198      -21.6414046218        3.3761446951
atom         1.6449800000        3.5081100000        0.0884100000 O         0.0000000000         0.0000000000        19.3960162262      -93.2446322662        2.8504534443
atom         1.7369600000        5.1395300000        1.5731600000 O         0.0000000000         0.0000000000       -55.4947322541       37.3477372819       91.8877886432
atom        10.1289800000        3.4461000000        1.6931800000 O         0.0000000000         0.0000000000         9.2095730528      -22.2050106348       26.4966886436
atom        10.0641400000        5.1552400000       10.0598300000 O         0.0000000000         0.0000000000       -29.6143596538       -0.8111305966      139.8771214195
atom         1.7371000000        3.2789600000        3.4114300000 O         0.0000000000         0.0000000000       -29.8567302504      104.7998959101      115.6144580971
atom         1.7728100000        5.3617100000        5.0766800000 O         0.0000000000         0.0000000000       -29.6140717605      -51.9524753584       15.4838853422
atom        10.0806300000        3.4036400000        4.9001800000 O         0.0000000000         0.0000000000        13.9430501523       38.4766304228      135.8705246203
atom        10.1464400000        5.0091700000        3.4190500000 O         0.0000000000         0.0000000000        39.3417708121       -4.3817669065      -97.7249131598
atom         1.7350800000        3.3545500000        6.6075100000 O         0.0000000000         0.0000000000      -125.4482680554       -0.1522823977       73.8825479966
atom         1.6613800000        4.9881500000        8.4183400000 O         0.0000000000         0.0000000000       112.6685105880       33.9418014175       83.6235117408
atom        10.0712400000        3.4689800000        8.5099400000 O         0.0000000000         0.0000000000       -21.3510931859       17.3094445455       35.9292345854
atom        10.1289400000        5.0976500000        6.8219000000 O         0.0000000000         0.0000000000       -91.3253540115      -87.4173944850       -9.6676030222
atom         1.6957800000        6.8778000000       10.1390600000 O         0.0000000000         0.0000000000        14.0880963455      -82.2862539098       65.1654888819
atom         1.9505700000        8.2908200000        1.7155300000 O         0.0000000000         0.0000000000      -173.7052531482      163.2735052592      -29.3800154019
atom         0.0472100000        6.8318100000        1.6542500000 O         0.0000000000         0.0000000000        24.9619986545       -4.5386205868      111.7807543403
atom        10.0233200000        8.4406600000       10.0680100000 O         0.0000000000         0.0000000000        72.7033721410      152.6625801436      264.5721570448
atom         1.7649600000        7.0019800000        3.2950000000 O         0.0000000000         0.0000000000       -77.4775592762       -7.6282586957       38.8584468414
atom         1.7091400000        8.4735000000        5.0483500000 O         0.0000000000         0.0000000000       -35.5604486610      -46.5926910760       13.2031191917
atom        10.1335300000        6.8908700000        5.0281100000 O         0.0000000000         0.0000000000       -20.6667920799        2.6181564597       74.3599722406
atom        10.1251700000        8.4252300000        3.1176700000 O         0.0000000000         0.0000000000        81.5656039442      -13.9341656997      181.3657332439
atom         1.7718800000        6.8934200000        6.5549300000 O         0.0000000000         0.0000000000      -259.0377546153       41.1284077745      -10.1549760566
atom         1.6070500000        8.3529800000        8.5016900000 O         0.0000000000         0.0000000000       -24.3544070495       62.8969441636       19.4603605189
atom         0.0184800000        6.7996900000        8.4777900000 O         0.0000000000         0.0000000000       112.1794363051     -111.5781928509      -24.8322444995
atom         0.0411200000        8.7017700000        6.7272800000 O         0.0000000000         0.0000000000      -147.2155744701     -734.8622555731        5.4803455881
atom         5.1172300000        0.0494200000       10.0901700000 O         0.0000000000         0.0000000000       -94.6684250236        4.5866292598      187.5296181679
atom         5.1852100000        1.6650900000        1.7847700000 O         0.0000000000         0.0000000000       -26.1172435501       -1.1662737212       -7.5364185930
atom         3.2934900000        0.0010400000        1.6988800000 O         0.0000000000         0.0000000000        47.0889645850       -5.4843039915      -36.2988819277
atom         3.6352200000        1.9030400000        0.2371900000 O         0.0000000000         0.0000000000      -144.3714126804     -137.1481371362       -7.4620364341
atom         5.0597300000        0.0909300000        3.3369300000 O         0.0000000000         0.0000000000        37.6390846364      -23.4217086788        0.7507442131
atom         4.9695400000        1.7454200000        5.1064900000 O         0.0000000000         0.0000000000       136.3505859460      -76.6513593949      -44.2156809981
atom         3.3308800000        0.0871100000        4.9980200000 O         0.0000000000         0.0000000000        55.9722567222      -43.8179630028      -30.4499120056
atom         3.2944700000        1.5417400000        3.4204500000 O         0.0000000000         0.0000000000         3.4170396728       65.0134224570      129.0096162811
atom         5.0299700000        0.0827600000        6.7002100000 O         0.0000000000         0.0000000000        13.9833976727      -31.2009753143       38.9134354245
atom         5.2395200000        1.8023100000        8.4933100000 O         0.0000000000         0.0000000000       -48.5642168636      -38.5014186825      -34.2495931527
atom         3.4123100000        0.0760700000        8.4476100000 O         0.0000000000         0.0000000000       -13.4757258160       41.3904925547       13.6699308414
atom         3.2690000000        1.5790100000        6.5817500000 O         0.0000000000         0.0000000000       -68.2728756967      -40.3611090655      218.8877564059
atom         5.0100200000        3.5038300000        0.1463200000 O         0.0000000000         0.0000000000       114.3229939845      -94.2350384880      -39.5650001478
atom         5.0915900000        5.1250300000        1.6781900000 O         0.0000000000         0.0000000000       -41.2185174786       34.4052571101       54.5617722260
atom         3.3032600000        3.2442800000        1.5935500000 O         0.0000000000         0.0000000000       -10.3552947093       62.6091422686      102.9152541713
atom         3.4942100000        5.1058600000        9.9468900000 O         0.0000000000         0.0000000000       -23.9950817000      -41.7990091632       53.2231474193
atom         5.2553700000        3.1106900000        3.3826300000 O         0.0000000000         0.0000000000       -90.4217906031      126.8986555187      -16.1599128372
atom         5.0953100000        5.1863900000        5.0641500000 O         0.0000000000         0.0000000000       -72.2865761700      -98.1262367294      -34.4635630156
atom         3.3409000000        3.4247100000        5.0465100000 O         0.0000000000         0.0000000000        61.1068648290      -18.8954434915       15.0568644056
atom         3.2442900000        5.0022700000        3.3179900000 O         0.0000000000         0.0000000000       179.0733149719       12.9559348638       18.1619191524
atom         5.0297600000        3.4268200000        6.7704000000 O         0.0000000000         0.0000000000       -33.5233531220      -35.6764549911       11.1903063131
atom         5.1528700000        5.0800700000        8.6361100000 O         0.0000000000         0.0000000000         9.0675458546      -40.7437622085      -38.1056225058
atom         3.3519700000        3.2288800000        8.2468000000 O         0.0000000000         0.0000000000        31.4708384091      157.7277905541       30.0556988218
atom         3.4468500000        5.0179900000        6.8397800000 O         0.0000000000         0.0000000000      -111.4446165500       34.5239364502       17.5355295020
atom         5.1420900000        6.8698100000       10.1215300000 O         0.0000000000         0.0000000000      -198.0339199893     -202.4368786462       54.3436096676
atom         5.0353700000        8.4980900000        1.6387600000 O         0.0000000000         0.0000000000       -16.5674781282       44.9799914812       21.1910001367
atom         3.2002400000        6.8538100000        1.6589600000 O         0.0000000000         0.0000000000        96.7097999702      -90.9704572978      -30.0945290614
atom         3.2423200000        8.6863000000        0.2115000000 O         0.0000000000         0.0000000000        30.4814790116     -192.8608135045      -93.3369371294
atom         4.9879700000        6.9148000000        3.3738500000 O         0.0000000000         0.0000000000       -40.3258342931      -75.8653117212        7.6646263921
atom         5.0250400000        8.4314500000        4.9323400000 O         0.0000000000         0.0000000000       -16.2292105872      -90.0483940027      180.3743963644
atom         3.4114500000        6.9293800000        5.1005400000 O         0.0000000000         0.0000000000        42.0061513755      -11.5252322241       45.1523519888
atom         3.1957500000        8.3347100000        3.4709200000 O         0.0000000000         0.0000000000        67.5591654834       49.5161747321      -42.1464752441
atom         5.2717900000        6.7688600000        6.7803300000 O         0.0000000000         0.0000000000      -109.4284166935      -35.7333069903       21.5393419340
atom         5.1866500000        8.4649300000        8.4020600000 O         0.0000000000         0.0000000000       -94.8303938316      -14.3835762100      -41.1747633261
atom         3.2945300000        6.8516300000        8.4778700000 O         0.0000000000         0.0000000000        72.8537607053       16.5330825696      -48.9630614630
atom         3.4121200000        8.4218300000        6.7688700000 O         0.0000000000         0.0000000000        -0.9118172938        3.6082700266      -12.8388828582
atom         8.4387000000        0.1142000000        0.0926600000 O         0.0000000000         0.0000000000       -28.3738541606        9.1782052242      -21.3271111533
atom         8.3288500000        1.8905800000        1.6634100000 O         0.0000000000         0.0000000000        78.5088044452     -128.9477754376       -3.0042642560
atom         6.7827000000        0.1263100000        1.6023900000 O         0.0000000000         0.0000000000        -3.5486979347     -220.8378042979      127.8839919114
atom         6.7563100000        1.8433200000        0.0401500000 O         0.0000000000         0.0000000000       -22.4599286641     -143.2163891847      -27.2950424372
atom         8.4896900000       10.1323300000        3.5242200000 O         0.0000000000         0.0000000000        -9.9881267800       -9.0341931487      -52.0271409495
atom         8.5767400000        1.7610700000        5.0588700000 O         0.0000000000         0.0000000000       -52.1193220010      -21.3819613936      -47.3221496716
atom         6.7617700000       10.0400900000        4.9633200000 O         0.0000000000         0.0000000000        43.0511362760      150.7684753892       30.7299017765
atom         6.7675300000        1.7060100000        3.2392800000 O         0.0000000000         0.0000000000        -2.5818267575      -12.2643481587      117.2524506099
atom         8.4773700000        0.2000700000        6.8022500000 O         0.0000000000         0.0000000000        20.0567555090     -125.9524085034      -12.0432420825
atom         8.6586500000        1.5827500000        8.5281200000 O         0.0000000000         0.0000000000       -26.2431122131       62.4916482506        5.5377950688
atom         6.7461200000       10.1500500000        8.4920600000 O         0.0000000000         0.0000000000        29.1897768798       -8.4505335746        3.8037229143
atom         6.7937900000        1.7824700000        6.7540200000 O         0.0000000000         0.0000000000         9.2350338832      -98.7683358758      -79.0299900729
atom         8.4399800000        3.3181500000       10.0498200000 O         0.0000000000         0.0000000000       -55.7597437614      116.7570176581       31.3314065081
atom         8.5604100000        5.2274800000        1.6417800000 O         0.0000000000         0.0000000000      -126.0266355794     -197.0272243396        0.1259612533
atom         6.7343300000        3.2473000000        1.7231300000 O         0.0000000000         0.0000000000        -8.6390075932       13.9148856177       28.7799817819
atom         6.7884200000        5.0927800000        0.0995400000 O         0.0000000000         0.0000000000        13.6812157371      -63.8763279890     -113.6336921856
atom         8.4500900000        3.3598600000        3.3688400000 O         0.0000000000         0.0000000000         1.2480367067       -5.7583582136       36.0254840498
atom         8.3848900000        4.9917100000        4.9395300000 O         0.0000000000         0.0000000000       -24.6070164941       -9.5570676491      113.7560788824
atom         6.6070000000        3.4296500000        5.2320100000 O         0.0000000000         0.0000000000        49.2501754581        1.5379866434       34.8091100425
atom         6.8923000000        5.0443400000        3.2617900000 O         0.0000000000         0.0000000000        25.0250767632      168.9613123190     -110.8313716474
atom         8.2534300000        3.5242700000        6.7569600000 O         0.0000000000         0.0000000000        56.3753857124      -42.3040336055       -7.2086799914
atom         8.4499800000        5.1059300000        8.4909100000 O         0.0000000000         0.0000000000        22.8858936325      -11.0746626205      -41.3118804226
atom         6.8251100000        3.2849300000        8.3558100000 O         0.0000000000         0.0000000000         9.7665668577       20.9189725538      123.1971365648
atom         6.8922000000        5.2700000000        6.8962000000 O         0.0000000000         0.0000000000       -66.4949594856     -147.3298772330      -37.1126364500
atom         8.4683100000        6.7475400000        0.1953600000 O         0.0000000000         0.0000000000       -70.5327509629        9.5184846676     -258.5097484959
atom         8.4660100000        8.4724600000        1.8902300000 O         0.0000000000         0.0000000000       -14.0792135181      -69.6385457741     -110.2097999766
atom         6.7286200000        6.9097100000        1.6546500000 O         0.0000000000         0.0000000000        40.2171931894     -143.4012117633       40.6931315618
atom         6.8066500000        8.5030100000       10.1428700000 O         0.0000000000         0.0000000000        85.3396050351      -28.4329038655       74.9967234411
atom         8.4389200000        6.6927200000        3.5091400000 O         0.0000000000         0.0000000000        -9.6353544969       36.3833560169      -98.8891341359
atom         8.4892100000        8.6600000000        5.1653500000 O         0.0000000000         0.0000000000        -1.2567953697      -71.4038833162      -32.1327035126
atom         6.6086500000        6.8096900000        4.9790400000 O         0.0000000000         0.0000000000        57.9189043562       21.5970481820       25.5916238024
atom         6.7389100000        8.3521900000        3.4321700000 O         0.0000000000         0.0000000000        32.9427291391       17.4091635933     -124.9470367328
atom         8.3979600000        6.7753300000        6.8903300000 O         0.0000000000         0.0000000000       -12.2560172366       -0.9605448642     -181.7539554108
atom         8.6689200000        8.4556500000        8.4570800000 O         0.0000000000         0.0000000000      -460.1765033943      105.6467566225     -179.6983906652
atom         6.8148600000        6.7544400000        8.3988300000 O         0.0000000000         0.0000000000        41.6374712311      113.9951746517      100.1593895474
atom         6.8692300000        8.4075000000        6.7082500000 O         0.0000000000         0.0000000000      -127.8127331613      -17.6562311400      -15.2953585888
atom        10.0629300000        0.0368900000        0.1104700000 Cu         0.0000000000         0.0000000000        34.2188113792       38.3338545373       -0.3142009747
atom         0.0220800000        1.4804200000        1.6764100000 Cu         0.0000000000         0.0000000000       -50.1076484432       28.5800271315      -73.0848873830
atom         1.7481900000        0.0135600000        1.8927900000 Cu         0.0000000000         0.0000000000       -62.7397465624      -24.4163314984      -51.8855445909
atom         1.7159500000        1.8178100000       10.0524200000 Cu         0.0000000000         0.0000000000        89.3724186155      -25.8262066052        1.0845837479
atom        10.1565700000       10.1494600000        3.3465200000 Cu         0.0000000000         0.0000000000       -67.2983489722      -65.9417837860       66.0975755222
atom        10.1111300000        1.8321300000        4.9700600000 Cu         0.0000000000         0.0000000000        66.3463173770      -25.7923459541       13.1794238614
atom         1.7468600000       10.0671000000        5.0930600000 Cu         0.0000000000         0.0000000000       -43.6588658325       30.2617764893       -8.7342053620
atom         1.7295400000        1.7664900000        3.2679600000 Cu         0.0000000000         0.0000000000       -61.6303411606      -86.8119990189      -20.5758035984
atom         0.1160300000        9.9311500000        6.7931800000 Cu         0.0000000000         0.0000000000      -132.5776599562      666.3900274397       52.9907180842
atom         0.0830200000        1.8441300000        8.4329300000 Cu         0.0000000000         0.0000000000        49.7620729062      -13.9504222087      -10.0524442097
atom         1.7023900000       10.0943400000        8.4415900000 Cu         0.0000000000         0.0000000000        -6.1845560965      -14.6647339140      -31.6686815070
atom         1.5352100000        1.5596800000        6.6736500000 Cu         0.0000000000         0.0000000000       120.3259661732        9.3406619685      -17.4341344231
atom        10.0268100000        3.3736100000        0.0128600000 Cu         0.0000000000         0.0000000000        -5.3399983107      172.0688876781       24.4767776396
atom        10.0468300000        5.1724900000        1.8546300000 Cu         0.0000000000         0.0000000000       106.7205105560        7.2975297670      -39.3300614144
atom         1.6803700000        3.4056500000        1.8892100000 Cu         0.0000000000         0.0000000000       -13.2140725418       21.1728720836      -67.3709299999
atom         1.7481900000        5.0037200000        0.0664900000 Cu         0.0000000000         0.0000000000         0.4006697028      114.5790392009     -101.4894682505
atom         0.0782600000        3.2830200000        3.4206000000 Cu         0.0000000000         0.0000000000        -4.0106396537      -20.5501362422     -112.9658495699
atom         0.1431600000        5.0631700000        4.8771200000 Cu         0.0000000000         0.0000000000        18.3965404602       26.4177294413      126.1049902976
atom         1.7395500000        3.5042600000        5.1306100000 Cu         0.0000000000         0.0000000000       -33.1762862538       33.1461514149     -114.7870138978
atom         1.8032600000        5.1514600000        3.3533300000 Cu         0.0000000000         0.0000000000      -178.2289273215       31.9068224454        8.2664768731
atom         0.1204300000        3.3723400000        6.9546200000 Cu         0.0000000000         0.0000000000        26.3999256741      -20.6837560643      -15.3712773253
atom         0.1350000000        5.0628900000        8.5811900000 Cu         0.0000000000         0.0000000000       -58.0014285048       29.1630349248     -128.3668865125
atom         1.6803100000        3.3671500000        8.3679300000 Cu         0.0000000000         0.0000000000       -40.8462769429      -27.5215042732       -1.1909703503
atom         1.5337800000        5.1174500000        6.8614900000 Cu         0.0000000000         0.0000000000        31.3076682876       20.2218960330      -47.9489917808
atom        10.1306000000        6.9705700000        0.1251100000 Cu         0.0000000000         0.0000000000        -2.6699802901      -94.7860988731      -85.6103119204
atom         0.1007700000        8.4845500000        1.6869300000 Cu         0.0000000000         0.0000000000        45.6090065547       -4.2005196434     -219.3137906707
atom         1.6518800000        6.8768100000        1.7338800000 Cu         0.0000000000         0.0000000000       -60.9267324192     -175.1251200120      -46.1947028846
atom         1.6459200000        8.4610900000        0.0302800000 Cu         0.0000000000         0.0000000000       -57.7453051408       32.8725182981       -0.9497719921
atom         0.0636800000        6.7333100000        3.4738000000 Cu         0.0000000000         0.0000000000         3.9430854614      -37.6133797335      -31.0767318927
atom        10.1568100000        8.5728800000        5.1017000000 Cu         0.0000000000         0.0000000000        16.9630816889       15.2290754431      -51.9775008541
atom         1.7029800000        6.8784200000        4.8689100000 Cu         0.0000000000         0.0000000000         1.3365641617       48.0973293728        8.7082670035
atom         1.6308900000        8.7890200000        3.2793400000 Cu         0.0000000000         0.0000000000       -31.7376336945     -135.6672775490      -24.4872733765
atom        10.0967500000        6.6651900000        6.7048900000 Cu         0.0000000000         0.0000000000         4.2572014745       53.3050031722        7.0619764653
atom         9.9430800000        8.2997000000        8.6555800000 Cu         0.0000000000         0.0000000000       390.3228799854       -9.7861576611     -116.8939353702
atom         1.7510500000        6.7990900000        8.5349200000 Cu         0.0000000000         0.0000000000       -59.5069269965     -102.2943389335      -69.6225752016
atom         1.6059300000        8.6455200000        6.8908900000 Cu         0.0000000000         0.0000000000        57.4819298897     -223.0486427648       17.9172564571
atom         3.4675800000       10.0786000000        0.0256800000 Cu         0.0000000000         0.0000000000        27.2530182610      203.7052628729      -52.0147279099
atom         3.2961900000        1.6345200000        1.9188600000 Cu         0.0000000000         0.0000000000        13.9676196741      -17.4200213796      -62.4310248461
atom         4.9489700000        0.0632600000        1.5766000000 Cu         0.0000000000         0.0000000000        10.8666622066      -10.1174046776       -6.7200802083
atom         5.0903800000        1.8570900000        0.0592800000 Cu         0.0000000000         0.0000000000       140.9445424365       -3.5768174802      -21.9909280359
atom         3.4500300000       10.1397800000        3.2643900000 Cu         0.0000000000         0.0000000000       -53.9591844941      -91.2305697369       13.4250165265
atom         3.4686000000        1.6539900000        5.1827000000 Cu         0.0000000000         0.0000000000       -72.3812636116       71.6388636083     -206.3797402356
atom         5.1370000000        9.9769800000        5.0316100000 Cu         0.0000000000         0.0000000000       -12.2225750879       22.5600882084       -0.1569664394
atom         4.9149800000        1.6931400000        3.4597100000 Cu         0.0000000000         0.0000000000        25.8524666660      -96.9987748572      -14.1135478918
atom         3.2738000000       10.0054300000        6.7391400000 Cu         0.0000000000         0.0000000000       -12.7382557398       22.6932661991      -21.1897916730
atom         3.3508900000        1.8049800000        8.4599800000 Cu         0.0000000000         0.0000000000        84.0869139575     -165.8524567453       43.2030995680
atom         5.0897000000       10.1541400000        8.6747000000 Cu         0.0000000000         0.0000000000       -13.7012010614      -12.6229515017     -193.3434820052
atom         5.0486900000        1.7092000000        6.6775200000 Cu         0.0000000000         0.0000000000       -10.8316643948       44.0347813462       62.6985290264
atom         3.5412500000        3.4161500000       10.1325300000 Cu         0.0000000000         0.0000000000      -132.2290189547       63.4798968485      -72.8491531209
atom         3.3467600000        5.2167000000        1.6691200000 Cu         0.0000000000         0.0000000000        43.2809877636      -20.4089879677      -29.2794258751
atom         4.9550200000        3.4062800000        1.7021900000 Cu         0.0000000000         0.0000000000         9.8967381158       -6.2329234745       53.6274309701
atom         5.1739700000        4.9898300000        0.0999600000 Cu         0.0000000000         0.0000000000         7.6852313496      134.5279039232        5.5612367603
atom         3.3633900000        3.4222800000        3.4268300000 Cu         0.0000000000         0.0000000000        62.5546929893      -57.4405371273      -67.0413377169
atom         3.3180400000        5.1331900000        5.1464600000 Cu         0.0000000000         0.0000000000        70.5372311160       27.5421824511       -4.5128933424
atom         5.0517000000        3.3290200000        5.0669000000 Cu         0.0000000000         0.0000000000       -52.1631613231       62.6715029613      -34.7140799418
atom         5.2290000000        5.0846700000        3.4284700000 Cu         0.0000000000         0.0000000000        29.2642698009       -2.3860486998       -3.0932900697
atom         3.2098100000        3.3278600000        6.6606400000 Cu         0.0000000000         0.0000000000       146.1558702016      -19.3646511650      -26.7612642099
atom         3.4195900000        5.1171200000        8.4067600000 Cu         0.0000000000         0.0000000000        18.3687855103        1.7439314999      -20.9602561880
atom         5.2199400000        3.4025200000        8.5585500000 Cu         0.0000000000         0.0000000000       -34.1933564147       38.4571207655       23.9944554564
atom         4.9494700000        5.0443500000        6.6669700000 Cu         0.0000000000         0.0000000000        90.9429886512       28.8706496861       17.5450189137
atom         3.5115300000        6.7717800000       10.0752000000 Cu         0.0000000000         0.0000000000        -9.1982351192       24.7367623596       33.6475933271
atom         3.3602800000        8.3933500000        1.6884100000 Cu         0.0000000000         0.0000000000       207.7507129805       76.4880729813      108.8450571521
atom         5.1405000000        6.8618400000        1.8001100000 Cu         0.0000000000         0.0000000000       -36.3959389032      -20.0591810804      -35.4459982015
atom         5.2195200000        8.2985800000       10.0026100000 Cu         0.0000000000         0.0000000000       -12.0737197300      169.7733967667      -20.1990676594
atom         3.3070900000        6.6404500000        3.4988000000 Cu         0.0000000000         0.0000000000        19.9451120258      -45.3442212176      -19.9304325056