begin
comment generated by PY
lattice         9.0561216000         0.0000000000         0.0000000000
lattice         0.0000000000        10.3384256000         0.0000000000
lattice         0.0000000000         0.0000000000         9.8652368000
atom         0.4866000000        3.2698900000        6.1236000000 O         0.0000000000         0.0000000000        -1.6773481654       87.5905007333     -143.9759102711
atom         0.5428500000        2.9672000000        8.8747700000 O         0.0000000000         0.0000000000        74.2457344892        3.9150338111      280.9914577427
atom         1.6383600000        4.8875300000        3.9141600000 O         0.0000000000         0.0000000000        81.4667687971        0.5750597594       63.0218113652
atom         1.5610900000        4.3628100000        1.1654800000 O         0.0000000000         0.0000000000       122.3204889762       40.7405483256     -274.3071010429
atom         0.3459700000        0.8579500000        8.7553100000 O         0.0000000000         0.0000000000       377.0518904844     -353.9178171191      356.2336826155
atom         0.6016300000        0.2868900000        5.8906700000 O         0.0000000000         0.0000000000      -162.4549092557      107.7569581812       43.2027486117
atom         1.7229200000        2.3017000000        1.0420300000 O         0.0000000000         0.0000000000        25.0885446767       66.2141921872     -424.3493487759
atom         1.7042100000        1.7269500000        3.8681000000 O         0.0000000000         0.0000000000         0.2231397471       83.5922049076      -28.1747248808
atom         0.3991600000        8.5156700000        6.1503700000 O         0.0000000000         0.0000000000       139.8544332601      -53.3841373097     -122.7756777171
atom         0.6057400000        7.8280900000        8.9016400000 O         0.0000000000         0.0000000000        22.3143354357      102.0862666440       77.1921218391
atom         1.6207100000       10.0449200000        4.0214500000 O         0.0000000000         0.0000000000       153.2951496121     -118.2051899009      -20.1475932512
atom         1.9065500000        9.6903500000        1.1185700000 O         0.0000000000         0.0000000000       -45.0710131557      -67.6651409307     -172.3025528833
atom         0.5078200000        5.9282200000        8.7283100000 O         0.0000000000         0.0000000000       340.3740539132     -315.6650264767      138.1431997686
atom         0.5868200000        5.4451200000        5.7801600000 O         0.0000000000         0.0000000000      -137.0692977647      104.6974755896       54.9404100441
atom         1.7004700000        7.6398700000        1.0623300000 O         0.0000000000         0.0000000000       -41.3546301330      -53.7900920788     -171.1903857815
atom         1.5957600000        6.8346300000        3.9144300000 O         0.0000000000         0.0000000000       112.5457931876      231.4325149235      -63.2086702868
atom         2.8578100000        3.4545900000        5.9467100000 O         0.0000000000         0.0000000000       -46.1467807856       -6.4955071799       26.8937372082
atom         3.0360100000        2.6879500000        8.7305700000 O         0.0000000000         0.0000000000      -625.5987678456      695.3452857167      133.4853194394
atom         3.9636300000        5.0328200000        3.8681900000 O         0.0000000000         0.0000000000       -24.4975130693      -87.2741340110      -53.2818360002
atom         3.9996800000        4.3369200000        0.9221500000 O         0.0000000000         0.0000000000        74.4546113272       30.0461662004     -124.0512864748
atom         2.7970400000        0.7472600000        8.8831200000 O         0.0000000000         0.0000000000       -58.5544975551      -39.8217948966       49.8536573102
atom         2.8268200000        0.2088200000        5.8232100000 O         0.0000000000         0.0000000000       -73.9703608922      175.1222957955       45.8347291239
atom         3.9412700000        2.3496600000        1.0541600000 O         0.0000000000         0.0000000000       111.2502041611      -92.2031605899     -241.0104485129
atom         3.8321400000        1.7193100000        3.7560900000 O         0.0000000000         0.0000000000        23.2078323449      182.9747812511       92.9357876340
atom         2.7588600000        8.8232200000        6.1581600000 O         0.0000000000         0.0000000000        50.9271820203     -146.9223561925      -91.0731962827
atom         2.7085700000        8.0211400000        8.6903300000 O         0.0000000000         0.0000000000      -117.0888835820      -61.6826301004      589.7183627173
atom         3.8813800000       10.0508800000        3.9258800000 O         0.0000000000         0.0000000000        38.9235420808      -32.5584198424       70.8506761512
atom         3.9989400000        9.5231500000        1.1245900000 O         0.0000000000         0.0000000000        -7.6282313728       -3.8861853905     -157.8638128594
atom         2.7113200000        5.9219900000        8.8850100000 O         0.0000000000         0.0000000000       210.0568853093     -100.8161864475        7.7069809239
atom         2.8564200000        5.4946200000        5.9892600000 O         0.0000000000         0.0000000000        39.0811002131       -0.5467630811      -98.0889441296
atom         3.9293600000        7.3505600000        0.9661600000 O         0.0000000000         0.0000000000       -71.2963131040      -58.4618615728      -54.1196855024
atom         3.9264500000        6.9759800000        3.7455600000 O         0.0000000000         0.0000000000        86.9567448873       59.3410732947      350.8067982428
atom         4.8894400000        3.3886100000        6.0429100000 O         0.0000000000         0.0000000000       341.0493141774     -372.6922949079     -175.5683247516
atom         5.1702200000        2.7240600000        8.7866400000 O         0.0000000000         0.0000000000      -295.1852001881      258.7734690804       65.2838743201
atom         6.2847500000        4.8438200000        3.8196100000 O         0.0000000000         0.0000000000       115.9444737921      243.1755371411      627.5351638866
atom         6.2183200000        4.2559600000        0.8871500000 O         0.0000000000         0.0000000000       -32.2623165622      197.0223396273       47.3872873194
atom         4.9573300000        0.7501400000        8.7204400000 O         0.0000000000         0.0000000000        -2.6786763012       61.9285018003      343.7160564400
atom         5.0041100000        0.3172500000        5.7824500000 O         0.0000000000         0.0000000000       101.6026147807      102.1491006192       23.9174633669
atom         6.2080900000        2.3515600000        0.9906200000 O         0.0000000000         0.0000000000       125.5064699613     -146.5208636620        0.2851560940
atom         6.3726700000        1.7185000000        3.8533100000 O         0.0000000000         0.0000000000      -197.0130722623      118.4707408695      121.5090068870
atom         5.1031200000        8.5315100000        6.0383500000 O         0.0000000000         0.0000000000       -25.9572127992      100.0006111311     -348.1081779403
atom         5.0343200000        8.0189000000        9.0114500000 O         0.0000000000         0.0000000000       220.4439624378      186.7162221020      -40.0058304882
atom         6.3864300000       10.1048800000        3.8350000000 O         0.0000000000         0.0000000000      -228.3036401780      -81.2097311644      413.6548781496
atom         6.1087400000        9.6186600000        1.1477600000 O         0.0000000000         0.0000000000        32.1232302777     -112.0070749484      -80.4590368690
atom         5.1132600000        5.9859400000        8.7736600000 O         0.0000000000         0.0000000000       -80.2987467183       -4.9895020442        8.2216351787
atom         5.0107900000        5.3942300000        5.9226200000 O         0.0000000000         0.0000000000       170.0149120090      161.9795164071     -177.5162911614
atom         6.1086000000        7.4470100000        1.0866600000 O         0.0000000000         0.0000000000        93.6640774155      -30.0810222073     -148.0251318270
atom         6.3957000000        7.2029300000        3.7856200000 O         0.0000000000         0.0000000000        -6.3194558867      -65.6139507159      330.6412832351
atom         7.1872200000        3.4263500000        6.0079900000 O         0.0000000000         0.0000000000       172.2215938651      -83.5441432898      -86.3904421253
atom         7.2612800000        2.8229200000        8.7059200000 O         0.0000000000         0.0000000000       218.3839942125      123.0847338385      220.0760078101
atom         8.3892200000        5.0540600000        3.9371600000 O         0.0000000000         0.0000000000       134.1170075262     -186.3677726551       54.6190709235
atom         8.4483900000        4.2442200000        1.0014700000 O         0.0000000000         0.0000000000        68.0683448716      220.1223072523       17.9293902402
atom         7.1972500000        0.6663700000        8.7277400000 O         0.0000000000         0.0000000000        52.7012142602       94.3859422366      214.4483850688
atom         7.4636100000        0.2568200000        5.8505700000 O         0.0000000000         0.0000000000       -73.2660873048       77.7311268971        1.8300756800
atom         8.4771800000        2.3358000000        1.0449300000 O         0.0000000000         0.0000000000       -25.1292442543      -43.8398845131      -40.4643716357
atom         8.5433300000        1.7549000000        3.8544600000 O         0.0000000000         0.0000000000        -3.2001340874      -37.7882611424      260.1629885641
atom         7.3098300000        8.6932500000        6.0997100000 O         0.0000000000         0.0000000000       -62.5287053332      -36.1813953711     -301.4826099484
atom         7.4018100000        8.0406000000        8.7423400000 O         0.0000000000         0.0000000000        17.8593540840      -80.6000304737      118.0611454049
atom         8.4596100000       10.1710400000        3.9297400000 O         0.0000000000         0.0000000000        70.6947351097     -189.0841220447       29.3074467770
atom         8.3947600000        9.5961000000        0.9790200000 O         0.0000000000         0.0000000000       119.7171705606      130.7496282016      -31.3656487803
atom         7.4019500000        5.8794900000        8.8114800000 O         0.0000000000         0.0000000000       -43.6376430089       25.4896346011      187.4206231893
atom         7.4376600000        5.6781700000        5.9323700000 O         0.0000000000         0.0000000000       -28.3963447459      -49.9281203034      -30.6642299393
atom         8.4112500000        7.5439700000        0.8232500000 O         0.0000000000         0.0000000000       107.5816200735     -261.1959059496       -3.2088332722
atom         8.4770600000        6.8654300000        3.8864800000 O         0.0000000000         0.0000000000       137.9465808246      275.3200255575      -58.6416220677
atom         0.4694500000        3.1777900000        7.5512400000 Cu         0.0000000000         0.0000000000       -24.8253670946       18.5259201983     -150.4168728180
atom         1.7201000000        4.4000900000        2.4913100000 Cu         0.0000000000         0.0000000000         7.3868902776        3.3924823774      202.3227404063
atom         0.6209500000        0.5698500000        7.5566300000 Cu         0.0000000000         0.0000000000        99.2635323082      -79.9357883455     -466.5407616100
atom         1.7207200000        2.1528800000        2.3174000000 Cu         0.0000000000         0.0000000000       -13.9990050775      -41.1361399865      424.1478266891
atom         0.5630900000        3.3563400000        0.9314800000 Cu         0.0000000000         0.0000000000       -12.9226475461     -121.1000915404       39.1335277361
atom         1.6496600000        4.5263300000        5.7944000000 Cu         0.0000000000         0.0000000000       126.8874332134     -214.2925277689       48.9248892463
atom         0.6196200000        0.6893700000        3.9744800000 Cu         0.0000000000         0.0000000000      -160.0929982813      178.8217581142      -34.4811714902
atom         1.7343100000        1.8760900000        8.7752400000 Cu         0.0000000000         0.0000000000       -72.8294972666      -52.9318060058      -49.6951316011
atom         0.6820400000        8.0817700000        7.4609600000 Cu         0.0000000000         0.0000000000        25.7345604597      -21.9232125341       63.7248098718
atom         1.7810400000        9.9330200000        2.4748400000 Cu         0.0000000000         0.0000000000       -16.1317787909       25.0139641113      182.0448057877
atom         0.5751500000        5.6603500000        7.3324400000 Cu         0.0000000000         0.0000000000       -10.1444724946       -6.8064615327     -118.2481133400
atom         1.5399800000        7.0639600000        2.3251300000 Cu         0.0000000000         0.0000000000        -3.1423485529      -40.5386084812      195.3569870589
atom         0.4333300000        8.5226900000        0.9843200000 Cu         0.0000000000         0.0000000000       108.8508451385      121.0395551830       41.3556589950
atom         1.5853700000        9.6494100000        6.0654600000 Cu         0.0000000000         0.0000000000        59.0810374060      -90.1975521435       17.4615189126
atom         0.5531300000        5.9701200000        4.1571200000 Cu         0.0000000000         0.0000000000      -115.7333695535     -167.7703680425      -54.5360089493
atom         1.7529600000        6.8960400000        8.9602700000 Cu         0.0000000000         0.0000000000      -185.9366460893       73.6084706924      -31.4291999902
atom         2.9083000000        3.0374200000        7.4748700000 Cu         0.0000000000         0.0000000000       -12.5055612983       44.5621369358     -305.6235572511
atom         4.1052100000        4.5963500000        2.3055300000 Cu         0.0000000000         0.0000000000        -0.5504616920       25.1497001124      158.1703719972
atom         2.8763400000        0.6740500000        7.4079600000 Cu         0.0000000000         0.0000000000       -20.1762274251      -21.2376642552      -84.7163070835
atom         4.0720600000        2.1000400000        2.3913000000 Cu         0.0000000000         0.0000000000        25.2737401752      -16.0380969077      110.8518528846
atom         2.9504700000        3.3522100000        1.1530900000 Cu         0.0000000000         0.0000000000      -266.0170511009       69.1256012167       61.6502308238
atom         4.0970500000        4.3706000000        6.0190300000 Cu         0.0000000000         0.0000000000      -561.6514256801      269.7276526368       22.5470215668
atom         2.8171000000        0.7624100000        3.8628500000 Cu         0.0000000000         0.0000000000      -139.9750561420     -151.8332702588       12.2805654026
atom         3.8025800000        1.8405600000        8.9822800000 Cu         0.0000000000         0.0000000000       762.9873222405     -710.1382594118      122.4231371651
atom         2.8011500000        8.5076900000        7.5658800000 Cu         0.0000000000         0.0000000000        24.4855076248      178.3919795697     -467.9402777647
atom         4.0628200000        9.8004500000        2.5018300000 Cu         0.0000000000         0.0000000000        -4.4757605473       12.7751624106       67.1347599429
atom         2.7886700000        5.8293200000        7.3977200000 Cu         0.0000000000         0.0000000000       -14.1498443109       -7.9763598411       62.7989817443
atom         3.9147200000        7.1923800000        2.4547500000 Cu         0.0000000000         0.0000000000        19.9260140716       32.8089679348     -282.0125354601
atom         2.8937200000        8.4959000000        1.0587600000 Cu         0.0000000000         0.0000000000        20.9413022757       76.8458570118       40.1043562535
atom         3.9593700000        9.6633000000        5.9260400000 Cu         0.0000000000         0.0000000000        27.5177970199     -135.7100635716       43.0248952360
atom         2.8397700000        6.0564000000        3.7503300000 Cu         0.0000000000         0.0000000000      -101.9379517911     -195.6028117102        6.2912533203
atom         3.8996900000        7.2948400000        8.7866200000 Cu         0.0000000000         0.0000000000       -66.0695306794     -391.8098819963      -45.0377638533
atom         5.0313300000        3.0331000000        7.3726700000 Cu         0.0000000000         0.0000000000       -10.9307393053       12.3267895089       65.0088375193
atom         6.0096700000        4.4463800000        2.6974900000 Cu         0.0000000000         0.0000000000      -131.6038545049     -214.3828207979     -662.8337999109
atom         5.1518700000        0.5823900000        7.4257700000 Cu         0.0000000000         0.0000000000        37.2962587016      -44.0475984333     -356.0406118243
atom         6.1387600000        2.2076000000        2.5423700000 Cu         0.0000000000         0.0000000000       -26.4895466581       31.8537859264     -130.1097474671
atom         5.1751500000        3.2854900000        0.9971400000 Cu         0.0000000000         0.0000000000      -240.3302410267      102.2455470075       32.6647704081
atom         6.1357700000        4.3287200000        6.1296900000 Cu         0.0000000000         0.0000000000       -87.9293814396      152.7266425867       38.8218628094
atom         4.9633000000        0.8450200000        3.8445100000 Cu         0.0000000000         0.0000000000       191.7427369758     -108.4261779597      -19.1474925853
atom         6.2367200000        1.9666900000        8.9530600000 Cu         0.0000000000         0.0000000000        26.3366546465     -524.8251669263       19.3004392388
atom         5.1576000000        8.2904000000        7.3186600000 Cu         0.0000000000         0.0000000000        16.5534680764      -70.1290645253      411.2211352757
atom         6.3081800000        9.7428800000        2.6111100000 Cu         0.0000000000         0.0000000000       -34.2131137769      -71.1074995552     -346.2677457553
atom         5.1513300000        5.5429900000        7.3089600000 Cu         0.0000000000         0.0000000000         7.4191164174       18.6676477304      140.2703323862
atom         6.0613200000        7.1974200000        2.4976800000 Cu         0.0000000000         0.0000000000       -49.3445875155        4.4779757659     -167.5821177814
atom         4.9813700000        8.3815200000        0.9376100000 Cu         0.0000000000         0.0000000000        89.3493583159      167.7926055336       47.9617757976
atom         6.1904700000        9.6683900000        5.8978200000 Cu         0.0000000000         0.0000000000        -5.4220796459      -16.2630267106       30.4066477523
atom         5.1040300000        5.9456200000        4.1696200000 Cu         0.0000000000         0.0000000000       105.9966431621       90.5593757603      -68.7315434772
atom         6.1950300000        6.9880100000        8.7983100000 Cu         0.0000000000         0.0000000000       103.7232714475       20.9898881380      -15.9750786823
atom         7.5128500000        3.1705500000        7.4138100000 Cu         0.0000000000         0.0000000000        36.1942032960       49.6941622055     -159.2056052933
atom         8.4503700000        4.7498800000        2.4840200000 Cu         0.0000000000         0.0000000000        -1.3275628502      -15.5409782064      -61.5746130937
atom         7.2333800000        0.5760700000        7.3660300000 Cu         0.0000000000         0.0000000000       -13.4616184600      -42.4308470434     -216.8431196310
atom         8.5843400000        1.9384100000        2.5244300000 Cu         0.0000000000         0.0000000000        10.8687244331       36.7735089386     -231.4548181050
atom         7.3349900000        3.4021500000        1.0117900000 Cu         0.0000000000         0.0000000000        14.8942587100     -238.8345809741       24.7283267733
atom         8.4216500000        4.4409000000        5.9708000000 Cu         0.0000000000         0.0000000000        22.7187239616      -31.6853057459       22.1004515520
atom         7.3300600000        0.7242800000        3.9483200000 Cu         0.0000000000         0.0000000000       298.5035603834      166.4431339565      -24.0295402382
atom         8.6393700000        1.8077800000        8.9357500000 Cu         0.0000000000         0.0000000000      -558.0680066032      403.6168582165       29.8988230928
atom         7.1814100000        8.2514700000        7.3284200000 Cu         0.0000000000         0.0000000000       -52.0008948138      -71.9459711082      213.8407996577
atom         8.5232000000        9.8195200000        2.4486700000 Cu         0.0000000000         0.0000000000       -13.1043818587       12.7900029807        8.5491044771
atom         7.4983000000        5.7415200000        7.4494000000 Cu         0.0000000000         0.0000000000         5.4691349383      -20.8179408315     -182.1689700181
atom         8.3598400000        7.1621400000        2.3184500000 Cu         0.0000000000         0.0000000000        19.5475998180       -2.4718542391       24.3962598556
atom         7.4831300000        8.5343700000        0.8871700000 Cu         0.0000000000         0.0000000000      -395.7468594027       66.3559050486       43.1826260477
atom         8.4638900000        9.4837700000        5.8992400000 Cu         0.0000000000         0.0000000000        42.2320067823      217.8617779457      -12.5691158345
atom         7.4188600000        6.0398200000        4.0680200000 Cu         0.0000000000         0.0000000000      -338.6026209091      -44.9399385654      -21.2278887652
atom         8.6298900000        6.8044000000        8.7369000000 Cu         0.0000000000         0.0000000000      -442.0324670644      326.2698840313      -13.6584908849
energy    -22765.8591438209
charge 0
end
begin
comment generated by PY
lattice         9.1014022080         0.0000000000         0.0000000000
lattice         0.0000000000        10.3901177280         0.0000000000
lattice         0.0000000000         0.0000000000         9.9145629840
atom         0.6083100000        3.5846500000        6.0988700000 O         0.0000000000         0.0000000000      -144.6162049299        0.3680078033     -284.9581340128
atom         0.6857500000        2.8297000000        8.7430800000 O         0.0000000000         0.0000000000      -227.1097198908      171.4596174056       87.1116918599
atom         1.7131500000        4.8310200000        3.9409500000 O         0.0000000000         0.0000000000        18.2154627740       78.8395023240      252.2417681316
atom         1.8938700000        4.3756100000        0.9353200000 O         0.0000000000         0.0000000000      -298.1648938468      211.9514243385       33.4770171309
atom         0.4277800000        0.7527600000        9.0394200000 O         0.0000000000         0.0000000000        72.5463673884       61.2519290361      -73.9162012856
atom         0.4883400000        0.2471900000        5.9520500000 O         0.0000000000         0.0000000000        84.9948588229       23.0994655704      -41.1465911884
atom         1.7259500000        2.3163500000        0.9052000000 O         0.0000000000         0.0000000000       -91.5568152666      -44.8376779755       70.3081140259
atom         1.9326800000        1.8180700000        3.8239300000 O         0.0000000000         0.0000000000      -120.0077903271       15.6856491681      748.8293477825
atom         0.5539400000        8.6362700000        6.0669200000 O         0.0000000000         0.0000000000        95.7808525481      -61.0250580168     -112.4431102225
atom         0.7323700000        8.0273300000        8.8705800000 O         0.0000000000         0.0000000000      -196.5803858922       48.0252558651       83.1400044031
atom         1.7250400000       10.2553900000        4.0195300000 O         0.0000000000         0.0000000000       -62.0057921610     -289.3592397135      -14.5877055621
atom         1.7117300000        9.5421200000        1.1126300000 O         0.0000000000         0.0000000000         5.4662727363       -2.2983353348     -158.2384205000
atom         0.6450500000        5.9005100000        8.7963100000 O         0.0000000000         0.0000000000      -115.3712182582        3.3758331589       62.2711041535
atom         0.8805200000        5.4426500000        6.0864700000 O         0.0000000000         0.0000000000      -535.7567276952      512.7927400472     -411.7890281163
atom         1.5890600000        7.7086200000        0.8242300000 O         0.0000000000         0.0000000000      -179.5527470381     -302.4567531333       -6.0708218271
atom         1.6301800000        7.0006700000        3.9273500000 O         0.0000000000         0.0000000000       149.8751449169      299.3155427229      -38.0085535885
atom         2.9260900000        3.4089300000        6.1090400000 O         0.0000000000         0.0000000000       -39.5131977698       -4.7249375641      -53.0506350261
atom         2.8106300000        2.7695000000        8.9070300000 O         0.0000000000         0.0000000000        42.5176177813      242.2907637831      156.5523872913
atom         3.8364200000        5.1284700000        3.9795600000 O         0.0000000000         0.0000000000       140.5362034007     -100.0517402432       22.1601551334
atom         4.1175500000        4.4179500000        1.0275500000 O         0.0000000000         0.0000000000       -12.4253318576      -66.6839311677       14.9313021818
atom         2.9564200000        1.0318700000        8.8224700000 O         0.0000000000         0.0000000000      -109.7733120849     -167.5276972029       -2.5327087230
atom         2.7220700000        0.1695300000        6.0732700000 O         0.0000000000         0.0000000000       392.9518459151      365.2124865762     -190.7915206438
atom         4.0993200000        2.2797600000        1.1984500000 O         0.0000000000         0.0000000000        38.0880152760      163.5080447352     -475.1227180496
atom         3.8283200000        1.8552900000        3.8631200000 O         0.0000000000         0.0000000000        42.4536667825       18.9552731532       81.7107183474
atom         2.8986100000        8.8014500000        6.0501500000 O         0.0000000000         0.0000000000       191.3679441268     -421.6062914189       87.7923624518
atom         2.6256000000        8.1733600000        8.9024300000 O         0.0000000000         0.0000000000        60.7567574474     -162.1961549118      413.5676795107
atom         4.1231300000       10.2283000000        3.9146100000 O         0.0000000000         0.0000000000       -70.8016059709      -20.4453061752      -30.5675894545
atom         3.7778700000        9.4192600000        0.9724800000 O         0.0000000000         0.0000000000        27.1382380836      108.9840812036      -33.1304830625
atom         2.9517800000        6.0377000000        8.6536800000 O         0.0000000000         0.0000000000      -135.3380863711     -104.5814021297        3.5777603339
atom         2.8819900000        5.4786600000        5.9880700000 O         0.0000000000         0.0000000000        55.5912835661     -252.8280618328     -808.3978370320
atom         3.9131400000        7.5888900000        1.1468500000 O         0.0000000000         0.0000000000       -52.9366984280     -282.9580131784     -353.0179421565
atom         3.9067200000        6.9258900000        3.9142000000 O         0.0000000000         0.0000000000       196.7729012655      240.4762614962      -16.9192539180
atom         5.2093300000        3.4290200000        6.2653400000 O         0.0000000000         0.0000000000       -40.8421775181      -72.4170048467     -171.2076383132
atom         5.1722100000        2.9249700000        8.9089800000 O         0.0000000000         0.0000000000        80.5812762619      -36.3856730390      344.8920750659
atom         6.2282100000        4.9482800000        4.0762800000 O         0.0000000000         0.0000000000        53.7070103403      -36.1191893142      -52.4239256749
atom         6.2434200000        4.3428400000        1.0257500000 O         0.0000000000         0.0000000000       356.4660916795      308.4100414810       -4.4198329389
atom         5.0799400000        0.9175400000        8.8280300000 O         0.0000000000         0.0000000000        10.9992047219       27.2210992189      343.3878137960
atom         4.9690900000        0.2723400000        5.8920800000 O         0.0000000000         0.0000000000       172.7851710292      102.1927997435       79.9394300613
atom         6.2774200000        2.3688600000        0.8092900000 O         0.0000000000         0.0000000000       259.1127073162     -413.3182616110      -20.2962836879
atom         6.3302500000        1.8496300000        3.8294900000 O         0.0000000000         0.0000000000        42.3603400345       53.7941778679       24.8215459323
atom         5.2338900000        8.6163900000        6.0462900000 O         0.0000000000         0.0000000000      -115.8005082163      -90.4414026942      -12.5064582177
atom         5.1659800000        7.9903800000        8.8741300000 O         0.0000000000         0.0000000000      -132.5849277718       97.3166594269      214.6262080080
atom         6.1169800000       10.0969200000        4.1632300000 O         0.0000000000         0.0000000000        89.3851038718       61.8055779312     -118.9351030982