begin
comment generated by PY
lattice         9.3859520000         0.0000000000         0.0000000000
lattice         0.0000000000         9.3859520000         0.0000000000
lattice         0.0000000000         0.0000000000         8.2143792000
atom         1.1732400000        1.1732400000        3.0803900000 O         0.0000000000         0.0000000000        -0.0137571067       -0.0135726524       -0.0061549715
atom         1.1732400000        1.1732400000        1.0268000000 O         0.0000000000         0.0000000000        -0.0152330818       -0.0105517206        0.0021227710
atom         1.1732400000        1.1732400000        7.1875800000 O         0.0000000000         0.0000000000        -0.0109206593       -0.0055014706       -0.0088774645
atom         1.1732400000        1.1732400000        5.1339900000 O         0.0000000000         0.0000000000        -0.0147718709       -0.0125810488        0.0225812943
atom         1.1732400000        3.5197300000        3.0803900000 O         0.0000000000         0.0000000000        -0.0112204465       -0.0007474981       -0.0285982511
atom         1.1732400000        3.5197300000        1.0268000000 O         0.0000000000         0.0000000000        -0.0156481717       -0.0004477110        0.0238972927
atom         1.1732400000        3.5197300000        7.1875800000 O         0.0000000000         0.0000000000        -0.0114510519       -0.0091184870       -0.0119498830
atom         1.1732400000        3.5197300000        5.1339900000 O         0.0000000000         0.0000000000        -0.0134574196       -0.0015776778        0.0260457409
atom         1.1732400000        5.8662200000        3.0803900000 O         0.0000000000         0.0000000000        -0.0170086440        0.0144355243       -0.0100366461
atom         1.1732400000        5.8662200000        1.0268000000 O         0.0000000000         0.0000000000        -0.0213210665       -0.0021680696        0.0212474737
atom         1.1732400000        5.8662200000        7.1875800000 O         0.0000000000         0.0000000000        -0.0080842119        0.0021211918        0.0094712382
atom         1.1732400000        5.8662200000        5.1339900000 O         0.0000000000         0.0000000000        -0.0091681577        0.0141587987       -0.0117252957
atom         1.1732400000        8.2127100000        3.0803900000 O         0.0000000000         0.0000000000        -0.0040716766       -0.0054428022        0.0065390491
atom         1.1732400000        8.2127100000        1.0268000000 O         0.0000000000         0.0000000000        -0.0068390423        0.0079553862        0.0054097101
atom         1.1732400000        8.2127100000        7.1875800000 O         0.0000000000         0.0000000000        -0.0021576511        0.0089469897       -0.0015334921
atom         1.1732400000        8.2127100000        5.1339900000 O         0.0000000000         0.0000000000        -0.0007971788        0.0010141612       -0.0007436389
atom         3.5197300000        1.1732400000        3.0803900000 O         0.0000000000         0.0000000000         0.0123509432       -0.0168703107       -0.0003152875
atom         3.5197300000        1.1732400000        1.0268000000 O         0.0000000000         0.0000000000         0.0152564722       -0.0120506562       -0.0013416756
atom         3.5197300000        1.1732400000        7.1875800000 O         0.0000000000         0.0000000000        -0.0093259719       -0.0021346205        0.0148802653
atom         3.5197300000        1.1732400000        5.1339900000 O         0.0000000000         0.0000000000        -0.0100178884       -0.0138032578       -0.0041743058
atom         3.5197300000        3.5197300000        3.0803900000 O         0.0000000000         0.0000000000        -0.0166361457       -0.0046216601        0.0016164322
atom         3.5197300000        3.5197300000        1.0268000000 O         0.0000000000         0.0000000000        -0.0119780150       -0.0085188928       -0.0005061315
atom         3.5197300000        3.5197300000        7.1875800000 O         0.0000000000         0.0000000000         0.0104599983       -0.0131310124       -0.0085776774
atom         3.5197300000        3.5197300000        5.1339900000 O         0.0000000000         0.0000000000         0.0116359862       -0.0036761777        0.0165624913
atom         3.5197300000        5.8662200000        3.0803900000 O         0.0000000000         0.0000000000        -0.0026845141        0.0152657000        0.0068951606
atom         3.5197300000        5.8662200000        1.0268000000 O         0.0000000000         0.0000000000        -0.0006091648        0.0065949346        0.0072674173
atom         3.5197300000        5.8662200000        7.1875800000 O         0.0000000000         0.0000000000         0.0167324673        0.0053266039        0.0031118914
atom         3.5197300000        5.8662200000        5.1339900000 O         0.0000000000         0.0000000000         0.0179545764        0.0097542300       -0.0081332176
atom         3.5197300000        8.2127100000        3.0803900000 O         0.0000000000         0.0000000000        -0.0016467994        0.0004606881        0.0158147537
atom         3.5197300000        8.2127100000        1.0268000000 O         0.0000000000         0.0000000000         0.0013740323        0.0087163643       -0.0021133929
atom         3.5197300000        8.2127100000        7.1875800000 O         0.0000000000         0.0000000000        -0.0078039658        0.0103075521        0.0018387123
atom         3.5197300000        8.2127100000        5.1339900000 O         0.0000000000         0.0000000000        -0.0073659154        0.0053956453       -0.0066294431
atom         5.8662200000        1.1732400000        3.0803900000 O         0.0000000000         0.0000000000        -0.0093629881       -0.0143567110       -0.0006359881
atom         5.8662200000        1.1732400000        1.0268000000 O         0.0000000000         0.0000000000        -0.0148513973        0.0037458192        0.0108552862
atom         5.8662200000        1.1732400000        7.1875800000 O         0.0000000000         0.0000000000         0.0016138325        0.0112404873        0.0055428895
atom         5.8662200000        1.1732400000        5.1339900000 O         0.0000000000         0.0000000000         0.0006222303       -0.0096754197       -0.0061365205
atom         5.8662200000        3.5197300000        3.0803900000 O         0.0000000000         0.0000000000         0.0073328447       -0.0108941292        0.0075682026
atom         5.8662200000        3.5197300000        1.0268000000 O         0.0000000000         0.0000000000         0.0042888535        0.0034034106       -0.0089022391
atom         5.8662200000        3.5197300000        7.1875800000 O         0.0000000000         0.0000000000         0.0017291312       -0.0060283636       -0.0166928432
atom         5.8662200000        3.5197300000        5.1339900000 O         0.0000000000         0.0000000000         0.0009450739       -0.0111477952        0.0275603046
atom         5.8662200000        5.8662200000        3.0803900000 O         0.0000000000         0.0000000000         0.0008758885        0.0153810000       -0.0045407272
atom         5.8662200000        5.8662200000        1.0268000000 O         0.0000000000         0.0000000000         0.0033203078        0.0054188440        0.0040829975
atom         5.8662200000        5.8662200000        7.1875800000 O         0.0000000000         0.0000000000        -0.0033672526       -0.0021680768        0.0046129701
atom         5.8662200000        5.8662200000        5.1339900000 O         0.0000000000         0.0000000000        -0.0104237790        0.0110225575        0.0041329359
atom         5.8662200000        8.2127100000        3.0803900000 O         0.0000000000         0.0000000000         0.0005991667        0.0056723719        0.0038715380
atom         5.8662200000        8.2127100000        1.0268000000 O         0.0000000000         0.0000000000         0.0011756816       -0.0123148555        0.0067397994
atom         5.8662200000        8.2127100000        7.1875800000 O         0.0000000000         0.0000000000         0.0004608031       -0.0077257965        0.0014027100
atom         5.8662200000        8.2127100000        5.1339900000 O         0.0000000000         0.0000000000        -0.0004385570        0.0097771495       -0.0021808354
atom         8.2127100000        1.1732400000        3.0803900000 O         0.0000000000         0.0000000000         0.0017520388       -0.0020884994        0.0111527769
atom         8.2127100000        1.1732400000        1.0268000000 O         0.0000000000         0.0000000000         0.0052573221       -0.0068389723       -0.0000572719
atom         8.2127100000        1.1732400000        7.1875800000 O         0.0000000000         0.0000000000         0.0170642426       -0.0043715037       -0.0048987139
atom         8.2127100000        1.1732400000        5.1339900000 O         0.0000000000         0.0000000000         0.0168567777       -0.0007279271        0.0029674771
atom         8.2127100000        3.5197300000        3.0803900000 O         0.0000000000         0.0000000000         0.0209153342       -0.0069738460        0.0066044815
atom         8.2127100000        3.5197300000        1.0268000000 O         0.0000000000         0.0000000000         0.0199238106        0.0131118913       -0.0008359662
atom         8.2127100000        3.5197300000        7.1875800000 O         0.0000000000         0.0000000000        -0.0065728391        0.0064243224       -0.0088935541
atom         8.2127100000        3.5197300000        5.1339900000 O         0.0000000000         0.0000000000        -0.0003694717       -0.0118857428        0.0142955706
atom         8.2127100000        5.8662200000        3.0803900000 O         0.0000000000         0.0000000000         0.0170642226        0.0023748556       -0.0094016699
atom         8.2127100000        5.8662200000        1.0268000000 O         0.0000000000         0.0000000000         0.0143662185        0.0013371317       -0.0014103375
atom         8.2127100000        5.8662200000        7.1875800000 O         0.0000000000         0.0000000000        -0.0023296982       -0.0015223769        0.0306070316
atom         8.2127100000        5.8662200000        5.1339900000 O         0.0000000000         0.0000000000         0.0014753722       -0.0033672199       -0.0105615598
atom         8.2127100000        8.2127100000        3.0803900000 O         0.0000000000         0.0000000000        -0.0008307526        0.0013600594        0.0057673288
atom         8.2127100000        8.2127100000        1.0268000000 O         0.0000000000         0.0000000000         0.0016368060       -0.0122226033       -0.0068016711
atom         8.2127100000        8.2127100000        7.1875800000 O         0.0000000000         0.0000000000         0.0011063334       -0.0087865817        0.0113235716
atom         8.2127100000        8.2127100000        5.1339900000 O         0.0000000000         0.0000000000         0.0022825014        0.0048422022       -0.0010096563
atom         0.0000000000        1.1732400000        2.0535900000 Cu         0.0000000000         0.0000000000         0.0004071360       -0.0042035543       -0.0052426112
atom         1.1732400000        0.0000000000        0.0000000000 Cu         0.0000000000         0.0000000000        -0.0023818010       -0.0032364706        0.0025861140
atom         0.0000000000        1.1732400000        6.1607800000 Cu         0.0000000000         0.0000000000         0.0022058588       -0.0038576460       -0.0058403493
atom         1.1732400000        0.0000000000        4.1071900000 Cu         0.0000000000         0.0000000000        -0.0021742560        0.0070715944       -0.0010134899
atom         0.0000000000        3.5197300000        2.0535900000 Cu         0.0000000000         0.0000000000        -0.0024293114       -0.0026349019       -0.0044354921
atom         1.1732400000        2.3464900000        0.0000000000 Cu         0.0000000000         0.0000000000        -0.0045494825        0.0108039543        0.0012716618
atom         0.0000000000        3.5197300000        6.1607800000 Cu         0.0000000000         0.0000000000         0.0102309295        0.0034761433       -0.0051254723
atom         1.1732400000        2.3464900000        4.1071900000 Cu         0.0000000000         0.0000000000        -0.0018052773        0.0052002311        0.0001625881
atom         0.0000000000        5.8662200000        2.0535900000 Cu         0.0000000000         0.0000000000         0.0070947049        0.0016684512       -0.0058652660
atom         1.1732400000        4.6929800000        0.0000000000 Cu         0.0000000000         0.0000000000        -0.0021973166        0.0139066100       -0.0032251441
atom         0.0000000000        5.8662200000        6.1607800000 Cu         0.0000000000         0.0000000000         0.0067949178        0.0018990564       -0.0062554592
atom         1.1732400000        4.6929800000        4.1071900000 Cu         0.0000000000         0.0000000000        -0.0048723401        0.0050513496        0.0047285866
atom         0.0000000000        8.2127100000        2.0535900000 Cu         0.0000000000         0.0000000000         0.0019291322        0.0051662278       -0.0057960644
atom         1.1732400000        7.0394600000        0.0000000000 Cu         0.0000000000         0.0000000000        -0.0012979552       -0.0129370104       -0.0003656361
atom         0.0000000000        8.2127100000        6.1607800000 Cu         0.0000000000         0.0000000000        -0.0010456785       -0.0015674522       -0.0057481071
atom         1.1732400000        7.0394600000        4.1071900000 Cu         0.0000000000         0.0000000000        -0.0041805237       -0.0089936567        0.0037830941
atom         2.3464900000        1.1732400000        2.0535900000 Cu         0.0000000000         0.0000000000        -0.0015103484       -0.0041804937       -0.0032362736
atom         3.5197300000        0.0000000000        0.0000000000 Cu         0.0000000000         0.0000000000         0.0009163705       -0.0038591054       -0.0013111196
atom         2.3464900000        1.1732400000        6.1607800000 Cu         0.0000000000         0.0000000000         0.0110576503       -0.0035117378       -0.0079387892
atom         3.5197300000        0.0000000000        4.1071900000 Cu         0.0000000000         0.0000000000        -0.0032575877        0.0065181412        0.0023302896
atom         2.3464900000        3.5197300000        2.0535900000 Cu         0.0000000000         0.0000000000         0.0114265991       -0.0008131196       -0.0048966330
atom         3.5197300000        2.3464900000        0.0000000000 Cu         0.0000000000         0.0000000000         0.0003167952        0.0112190241        0.0009488131
atom         2.3464900000        3.5197300000        6.1607800000 Cu         0.0000000000         0.0000000000         0.0021331982        0.0017004811       -0.0070855489
atom         3.5197300000        2.3464900000        4.1071900000 Cu         0.0000000000         0.0000000000        -0.0006286862        0.0108269848        0.0017076448
atom         2.3464900000        5.8662200000        2.0535900000 Cu         0.0000000000         0.0000000000         0.0127179897        0.0018990577       -0.0089091884
atom         3.5197300000        4.6929800000        0.0000000000 Cu         0.0000000000         0.0000000000        -0.0022429346        0.0134915102        0.0025399929
atom         2.3464900000        5.8662200000        6.1607800000 Cu         0.0000000000         0.0000000000        -0.0017640344        0.0002156374       -0.0032113968
atom         3.5197300000        4.6929800000        4.1071900000 Cu         0.0000000000         0.0000000000         0.0008010588        0.0040827966       -0.0002063807
atom         2.3464900000        8.2127100000        2.0535900000 Cu         0.0000000000         0.0000000000         0.0047621107        0.0033444445       -0.0075485960
atom         3.5197300000        7.0394600000        0.0000000000 Cu         0.0000000000         0.0000000000        -0.0001674813       -0.0119684574        0.0012716618
atom         2.3464900000        8.2127100000        6.1607800000 Cu         0.0000000000         0.0000000000         0.0046237474        0.0003235127       -0.0037648300
atom         3.5197300000        7.0394600000        4.1071900000 Cu         0.0000000000         0.0000000000         0.0020463313       -0.0125910822        0.0013156155
atom         4.6929800000        1.1732400000        2.0535900000 Cu         0.0000000000         0.0000000000         0.0110932932        0.0001318288       -0.0068337190
atom         5.8662200000        0.0000000000        0.0000000000 Cu         0.0000000000         0.0000000000         0.0011842050        0.0013064674       -0.0024180129
atom         4.6929800000        1.1732400000        6.1607800000 Cu         0.0000000000         0.0000000000         0.0089947833       -0.0050567945       -0.0042029804
atom         5.8662200000        0.0000000000        4.1071900000 Cu         0.0000000000         0.0000000000         0.0013917499        0.0002687427        0.0033449637
atom         4.6929800000        3.5197300000        2.0535900000 Cu         0.0000000000         0.0000000000         0.0116467363        0.0014698656       -0.0033746368
atom         5.8662200000        2.3464900000        0.0000000000 Cu         0.0000000000         0.0000000000         0.0024064150        0.0032861956        0.0032318214
atom         4.6929800000        3.5197300000        6.1607800000 Cu         0.0000000000         0.0000000000         0.0032757574       -0.0021045193       -0.0076390021
atom         5.8662200000        2.3464900000        4.1071900000 Cu         0.0000000000         0.0000000000        -0.0000610636        0.0111959536       -0.0009904193
atom         4.6929800000        5.8662200000        2.0535900000 Cu         0.0000000000         0.0000000000         0.0084874512       -0.0017445056       -0.0056807116
atom         5.8662200000        4.6929800000        0.0000000000 Cu         0.0000000000         0.0000000000        -0.0003147262        0.0065964163        0.0049844240
atom         4.6929800000        5.8662200000        6.1607800000 Cu         0.0000000000         0.0000000000         0.0072883027        0.0028214827       -0.0056788755
atom         5.8662200000        4.6929800000        4.1071900000 Cu         0.0000000000         0.0000000000         0.0022911156        0.0084412501       -0.0034348374
atom         4.6929800000        8.2127100000        2.0535900000 Cu         0.0000000000         0.0000000000         0.0073574844       -0.0001376882       -0.0077100199
atom         5.8662200000        7.0394600000        0.0000000000 Cu         0.0000000000         0.0000000000        -0.0003839089       -0.0028595409        0.0002108896
atom         4.6929800000        8.2127100000        6.1607800000 Cu         0.0000000000         0.0000000000         0.0139989222        0.0032752729       -0.0024503788
atom         5.8662200000        7.0394600000        4.1071900000 Cu         0.0000000000         0.0000000000         0.0027292650       -0.0120376290        0.0014539988
atom         7.0394600000        1.1732400000        2.0535900000 Cu         0.0000000000         0.0000000000        -0.0009916766       -0.0006983510       -0.0094395610
atom         8.2127100000        0.0000000000        0.0000000000 Cu         0.0000000000         0.0000000000         0.0004388655        0.0038200571        0.0013639020
atom         7.0394600000        1.1732400000        6.1607800000 Cu         0.0000000000         0.0000000000        -0.0140439467       -0.0055641266       -0.0020583494
atom         8.2127100000        0.0000000000        4.1071900000 Cu         0.0000000000         0.0000000000         0.0044283403       -0.0020834432        0.0005315668
atom         7.0394600000        3.5197300000        2.0535900000 Cu         0.0000000000         0.0000000000        -0.0123143956       -0.0009976090       -0.0042509377
atom         8.2127100000        2.3464900000        0.0000000000 Cu         0.0000000000         0.0000000000         0.0017533167        0.0012568774        0.0033932292
atom         7.0394600000        3.5197300000        6.1607800000 Cu         0.0000000000         0.0000000000        -0.0069182274        0.0004321450       -0.0067396407
atom         8.2127100000        2.3464900000        4.1071900000 Cu         0.0000000000         0.0000000000         0.0025834964        0.0059612192       -0.0022587695
atom         7.0394600000        5.8662200000        2.0535900000 Cu         0.0000000000         0.0000000000        -0.0192094995       -0.0014447195       -0.0022908111
atom         8.2127100000        4.6929800000        0.0000000000 Cu         0.0000000000         0.0000000000         0.0037826549        0.0035754845       -0.0005501225
atom         7.0394600000        5.8662200000        6.1607800000 Cu         0.0000000000         0.0000000000        -0.0044738093        0.0035132981       -0.0094146843
atom         8.2127100000        4.6929800000        4.1071900000 Cu         0.0000000000         0.0000000000         0.0004619260        0.0104475178        0.0020535530
atom         7.0394600000        8.2127100000        2.0535900000 Cu         0.0000000000         0.0000000000        -0.0066645614        0.0025603859       -0.0065800530
atom         8.2127100000        7.0394600000        0.0000000000 Cu         0.0000000000         0.0000000000         0.0012459847       -0.0001384063       -0.0024641490
atom         7.0394600000        8.2127100000        6.1607800000 Cu         0.0000000000         0.0000000000        -0.0093857060        0.0011998136       -0.0047564336
atom         8.2127100000        7.0394600000        4.1071900000 Cu         0.0000000000         0.0000000000        -0.0010600701       -0.0061802599        0.0050975454
energy    -23774.6369940954
charge 0
end
begin
comment generated by PY
lattice         9.4328817600         0.0000000000         0.0000000000
lattice         0.0000000000         9.4328817600         0.0000000000
lattice         0.0000000000         0.0000000000         8.2554510960
atom         1.1791100000        1.1791100000        3.0957900000 O         0.0000000000         0.0000000000         0.0029865245       -0.0121411950       -0.0049731562
atom         1.1791100000        1.1791100000        1.0319300000 O         0.0000000000         0.0000000000        -0.0001266485        0.0076678157        0.0095747468
atom         1.1791100000        1.1791100000        7.2235200000 O         0.0000000000         0.0000000000        -0.0126485261        0.0081059652       -0.0025323153
atom         1.1791100000        1.1791100000        5.1596600000 O         0.0000000000         0.0000000000        -0.0106422574       -0.0144703113       -0.0065093129
atom         1.1791100000        3.5373300000        3.0957900000 O         0.0000000000         0.0000000000        -0.0032398235        0.0027760858       -0.0218398151
atom         1.1791100000        3.5373300000        1.0319300000 O         0.0000000000         0.0000000000        -0.0096737154        0.0080108300        0.0018588626
atom         1.1791100000        3.5373300000        7.2235200000 O         0.0000000000         0.0000000000        -0.0046465159        0.0058200786        0.0125168222
atom         1.1791100000        3.5373300000        5.1596600000 O         0.0000000000         0.0000000000         0.0028481632        0.0027530262        0.0035083673
atom         1.1791100000        5.8955500000        3.0957900000 O         0.0000000000         0.0000000000         0.0027789796        0.0137710358       -0.0138402461
atom         1.1791100000        5.8955500000        1.0319300000 O         0.0000000000         0.0000000000        -0.0042314270       -0.0045851606        0.0060352579
atom         1.1791100000        5.8955500000        7.2235200000 O         0.0000000000         0.0000000000         0.0011878028        0.0002344942        0.0016067449
atom         1.1791100000        5.8955500000        5.1596600000 O         0.0000000000         0.0000000000         0.0079676049        0.0174146021        0.0018273834
atom         1.1791100000        8.2537700000        3.0957900000 O         0.0000000000         0.0000000000        -0.0000574678       -0.0075223918        0.0118811225
atom         1.1791100000        8.2537700000        1.0319300000 O         0.0000000000         0.0000000000        -0.0031937024       -0.0116963689        0.0046197249
atom         1.1791100000        8.2537700000        7.2235200000 O         0.0000000000         0.0000000000        -0.0114493776       -0.0126418504       -0.0167636694
atom         1.1791100000        8.2537700000        5.1596600000 O         0.0000000000         0.0000000000        -0.0060993294       -0.0074532281       -0.0045922885
atom         3.5373300000        1.1791100000        3.0957900000 O         0.0000000000         0.0000000000        -0.0068171050        0.0104812026        0.0035686450
atom         3.5373300000        1.1791100000        1.0319300000 O         0.0000000000         0.0000000000        -0.0048569586        0.0053848215        0.0002258245
atom         3.5373300000        1.1791100000        7.2235200000 O         0.0000000000         0.0000000000         0.0027991424        0.0047391252        0.0102295671
atom         3.5373300000        1.1791100000        5.1596600000 O         0.0000000000         0.0000000000         0.0010465411        0.0058460315       -0.0185563183
atom         3.5373300000        3.5373300000        3.0957900000 O         0.0000000000         0.0000000000        -0.0084313434        0.0023379353        0.0070413894
atom         3.5373300000        3.5373300000        1.0319300000 O         0.0000000000         0.0000000000        -0.0055487752       -0.0087311279       -0.0090581770
atom         3.5373300000        3.5373300000        7.2235200000 O         0.0000000000         0.0000000000         0.0037676853       -0.0153725651        0.0044550297
atom         3.5373300000        3.5373300000        5.1596600000 O         0.0000000000         0.0000000000         0.0004700273        0.0013002116       -0.0072241879
atom         3.5373300000        5.8955500000        3.0957900000 O         0.0000000000         0.0000000000        -0.0115675779       -0.0017717735       -0.0054368082
atom         3.5373300000        5.8955500000        1.0319300000 O         0.0000000000         0.0000000000        -0.0081084959        0.0036243945        0.0076862170
atom         3.5373300000        5.8955500000        7.2235200000 O         0.0000000000         0.0000000000        -0.0072552565        0.0122259792       -0.0068470769
atom         3.5373300000        5.8955500000        5.1596600000 O         0.0000000000         0.0000000000        -0.0100455825        0.0046851796       -0.0012260093
atom         3.5373300000        8.2537700000        3.0957900000 O         0.0000000000         0.0000000000         0.0033987180       -0.0122498041        0.0012826688
atom         3.5373300000        8.2537700000        1.0319300000 O         0.0000000000         0.0000000000         0.0065349523       -0.0004428215        0.0050715355
atom         3.5373300000        8.2537700000        7.2235200000 O         0.0000000000         0.0000000000         0.0028683242       -0.0042016898       -0.0121191009
atom         3.5373300000        8.2537700000        5.1596600000 O         0.0000000000         0.0000000000        -0.0008905447       -0.0122498221        0.0003332704
atom         5.8955500000        1.1791100000        3.0957900000 O         0.0000000000         0.0000000000         0.0064839010        0.0109654731       -0.0063218990
atom         5.8955500000        1.1791100000        1.0319300000 O         0.0000000000         0.0000000000         0.0060918720       -0.0076213286        0.0049738623
atom         5.8955500000        1.1791100000        7.2235200000 O         0.0000000000         0.0000000000         0.0134712466       -0.0097428990       -0.0038349301
atom         5.8955500000        1.1791100000        5.1596600000 O         0.0000000000         0.0000000000         0.0127794296        0.0068376350        0.0014577992
atom         5.8955500000        3.5373300000        3.0957900000 O         0.0000000000         0.0000000000         0.0088360769       -0.0076703424        0.0005868670
atom         5.8955500000        3.5373300000        1.0319300000 O         0.0000000000         0.0000000000         0.0099199230       -0.0016976607        0.0026310868
atom         5.8955500000        3.5373300000        7.2235200000 O         0.0000000000         0.0000000000        -0.0076060943       -0.0027353847       -0.0059889614
atom         5.8955500000        3.5373300000        5.1596600000 O         0.0000000000         0.0000000000        -0.0081134269       -0.0063558902       -0.0019457605
atom         5.8955500000        5.8955500000        3.0957900000 O         0.0000000000         0.0000000000        -0.0030401050       -0.0047465840       -0.0110842014
atom         5.8955500000        5.8955500000        1.0319300000 O         0.0000000000         0.0000000000        -0.0016795325        0.0104272564       -0.0004565916
atom         5.8955500000        5.8955500000        7.2235200000 O         0.0000000000         0.0000000000        -0.0035474376        0.0146473370        0.0085367457