begin
comment generated by PY
lattice         9.0561216000         0.0000000000         0.0000000000
lattice         0.0000000000        10.3384256000         0.0000000000
lattice         0.0000000000         0.0000000000         9.8652368000
atom         0.5660100000        3.1409000000        7.4407700000 Cu         0.0000000000         0.0000000000        -0.0050852680       -2.3719138245       -0.9144180077
atom         1.6980200000        4.6129200000        2.5081500000 Cu         0.0000000000         0.0000000000         0.0067118654        2.3725610099       -0.9128488261
atom         0.5660100000        0.5562900000        7.3570900000 Cu         0.0000000000         0.0000000000        -0.0042089871       -2.3709918283        0.9218949471
atom         1.6980200000        2.0283200000        2.4244700000 Cu         0.0000000000         0.0000000000         0.0059508763        2.3739379494        0.9216106756
atom         0.5660100000        3.3663700000        0.9714600000 Cu         0.0000000000         0.0000000000        -0.0124882554       -1.0047330846       34.6237832881
atom         1.6980200000        4.3874500000        5.9040800000 Cu         0.0000000000         0.0000000000         0.0143134972        1.0097557194       34.6205841396
atom         0.5660100000        0.7817600000        3.9611600000 Cu         0.0000000000         0.0000000000        -0.0126267187       -1.0147406295      -34.6236449248
atom         1.6980200000        1.8028500000        8.8937800000 Cu         0.0000000000         0.0000000000         0.0149593425        1.0173867506      -34.6237455634
atom         0.5660100000        8.3101100000        7.4407700000 Cu         0.0000000000         0.0000000000        -0.0022718811       -2.3751758869       -0.9145869765
atom         1.6980200000        9.7821400000        2.5081500000 Cu         0.0000000000         0.0000000000         0.0083491683        2.3728607971       -0.9075878280
atom         0.5660100000        5.7255000000        7.3570900000 Cu         0.0000000000         0.0000000000        -0.0037477662       -2.3726381623        0.9202798573
atom         1.6980200000        7.1975300000        2.4244700000 Cu         0.0000000000         0.0000000000         0.0085336577        2.3711526135        0.9219949471
atom         0.5660100000        8.5355800000        0.9714600000 Cu         0.0000000000         0.0000000000        -0.0122115288       -1.0114481745       34.6215296221
atom         1.6980200000        9.5566600000        5.9040800000 Cu         0.0000000000         0.0000000000         0.0156510890        1.0014716608       34.6214373799
atom         0.5660100000        5.9509700000        3.9611600000 Cu         0.0000000000         0.0000000000        -0.0119350023       -1.0169171432      -34.6205149579
atom         1.6980200000        6.9720600000        8.8937800000 Cu         0.0000000000         0.0000000000         0.0146595554        1.0125632643      -34.6246449248
atom         2.8300400000        3.1409000000        7.4407700000 Cu         0.0000000000         0.0000000000        -0.0066739453       -2.3702151017       -0.9143718866
atom         3.9620500000        4.6129200000        2.5081500000 Cu         0.0000000000         0.0000000000         0.0063982356        2.3741752483       -0.9122031307
atom         2.8300400000        0.5562900000        7.3570900000 Cu         0.0000000000         0.0000000000        -0.0067200794       -2.3719142502        0.9220102499
atom         3.9620500000        2.0283200000        2.4244700000 Cu         0.0000000000         0.0000000000         0.0063060014        2.3728310431        0.9220488261
atom         2.8300400000        3.3663700000        0.9714600000 Cu         0.0000000000         0.0000000000        -0.0135684128       -1.0045947213       34.6234604404
atom         3.9620500000        4.3874500000        5.9040800000 Cu         0.0000000000         0.0000000000         0.0143891892        1.0102169304       34.6202843525
atom         2.8300400000        0.7817600000        3.9611600000 Cu         0.0000000000         0.0000000000        -0.0134993312       -1.0149020534      -34.6239216514
atom         3.9620500000        1.8028500000        8.8937800000 Cu         0.0000000000         0.0000000000         0.0148274797        1.0174328717      -34.6240453506
atom         2.8300400000        8.3101100000        7.4407700000 Cu         0.0000000000         0.0000000000        -0.0074349434       -2.3749914025       -0.9147484003
atom         3.9620500000        9.7821400000        2.5081500000 Cu         0.0000000000         0.0000000000         0.0066288441        2.3728146760       -0.9079106756
atom         2.8300400000        5.7255000000        7.3570900000 Cu         0.0000000000         0.0000000000        -0.0064894689       -2.3733299787        0.9203951600
atom         3.9620500000        7.1975300000        2.4244700000 Cu         0.0000000000         0.0000000000         0.0063290620        2.3704607971        0.9217643417
atom         2.8300400000        8.5355800000        0.9714600000 Cu         0.0000000000         0.0000000000        -0.0125768192       -1.0123936569       34.6218524697
atom         3.9620500000        9.5566600000        5.9040800000 Cu         0.0000000000         0.0000000000         0.0130978686        1.0020251139       34.6210684111
atom         2.8300400000        5.9509700000        3.9611600000 Cu         0.0000000000         0.0000000000        -0.0138222288       -1.0162253268      -34.6225296221
atom         3.9620500000        6.9720600000        8.8937800000 Cu         0.0000000000         0.0000000000         0.0139050577        1.0123095983      -34.6248524697
atom         5.0940700000        3.1409000000        7.4407700000 Cu         0.0000000000         0.0000000000        -0.0070439299       -2.3701228595       -0.9146716737
atom         6.2260800000        4.6129200000        2.5081500000 Cu         0.0000000000         0.0000000000         0.0069506718        2.3730683420       -0.9128257655
atom         5.0940700000        0.5562900000        7.3570900000 Cu         0.0000000000         0.0000000000        -0.0085659391       -2.3718450686        0.9215029178
atom         6.2260800000        2.0283200000        2.4244700000 Cu         0.0000000000         0.0000000000         0.0075271935        2.3737534650        0.9220949471
atom         5.0940700000        3.3663700000        0.9714600000 Cu         0.0000000000         0.0000000000        -0.0140894021       -1.0038337232       34.6232067744
atom         6.2260800000        4.3874500000        5.9040800000 Cu         0.0000000000         0.0000000000         0.0143755320        1.0093867506       34.6202151708
atom         5.0940700000        0.7817600000        3.9611600000 Cu         0.0000000000         0.0000000000        -0.0132593124       -1.0158014148      -34.6232067744
atom         6.2260800000        1.8028500000        8.8937800000 Cu         0.0000000000         0.0000000000         0.0126461409        1.0173175690      -34.6241375927
atom         5.0940700000        8.3101100000        7.4407700000 Cu         0.0000000000         0.0000000000        -0.0089810160       -2.3749683420       -0.9139182206
atom         6.2260800000        9.7821400000        2.5081500000 Cu         0.0000000000         0.0000000000         0.0047599248        2.3731144631       -0.9077031307
atom         5.0940700000        5.7255000000        7.3570900000 Cu         0.0000000000         0.0000000000        -0.0079663609       -2.3737450686        0.9200953729
atom         6.2260800000        7.1975300000        2.4244700000 Cu         0.0000000000         0.0000000000         0.0042064746        2.3703916154        0.9221333104
atom         5.0940700000        8.5355800000        0.9714600000 Cu         0.0000000000         0.0000000000        -0.0137434939       -1.0109408424       34.6222214385
atom         6.2260800000        9.5566600000        5.9040800000 Cu         0.0000000000         0.0000000000         0.0132917662        1.0023479616       34.6194080516
atom         5.0940700000        5.9509700000        3.9611600000 Cu         0.0000000000         0.0000000000        -0.0144354603       -1.0168249011      -34.6217225029
atom         6.2260800000        6.9720600000        8.8937800000 Cu         0.0000000000         0.0000000000         0.0135685628        1.0118253268      -34.6232382314
atom         7.3581000000        3.1409000000        7.4407700000 Cu         0.0000000000         0.0000000000        -0.0073806213       -2.3709991603       -0.9138184334
atom         8.4901100000        4.6129200000        2.5081500000 Cu         0.0000000000         0.0000000000         0.0065842036        2.3720767384       -0.9133100370
atom         7.3581000000        0.5562900000        7.3570900000 Cu         0.0000000000         0.0000000000        -0.0062967885       -2.3714299787        0.9213645545
atom         8.4901100000        2.0283200000        2.4244700000 Cu         0.0000000000         0.0000000000         0.0062613659        2.3744683420        0.9219565839
atom         7.3581000000        3.3663700000        0.9714600000 Cu         0.0000000000         0.0000000000        -0.0143596183       -1.0049636901       34.6235296221
atom         8.4901100000        4.3874500000        5.9040800000 Cu         0.0000000000         0.0000000000         0.0118656206        1.0094559323       34.6183158095
atom         7.3581000000        0.7817600000        3.9611600000 Cu         0.0000000000         0.0000000000        -0.0147056165       -1.0137951471      -34.6226994423
atom         8.4901100000        1.8028500000        8.8937800000 Cu         0.0000000000         0.0000000000         0.0123962132        1.0178710221      -34.6221921103
atom         7.3581000000        8.3101100000        7.4407700000 Cu         0.0000000000         0.0000000000        -0.0069885920       -2.3747838576       -0.9137567967
atom         8.4901100000        9.7821400000        2.5081500000 Cu         0.0000000000         0.0000000000         0.0062383054        2.3736448557       -0.9076108885
atom         7.3581000000        5.7255000000        7.3570900000 Cu         0.0000000000         0.0000000000        -0.0067579955       -2.3736528264        0.9199108885
atom         8.4901100000        7.1975300000        2.4244700000 Cu         0.0000000000         0.0000000000         0.0068378796        2.3705069182        0.9212800702
atom         7.3581000000        8.5355800000        0.9714600000 Cu         0.0000000000         0.0000000000        -0.0157202006       -1.0116326589       34.6203304736
atom         8.4901100000        9.5566600000        5.9040800000 Cu         0.0000000000         0.0000000000         0.0121885683        1.0021173561       34.6192235673
atom         7.3581000000        5.9509700000        3.9611600000 Cu         0.0000000000         0.0000000000        -0.0143136472       -1.0171016276      -34.6210537470
atom         8.4901100000        6.9720600000        8.8937800000 Cu         0.0000000000         0.0000000000         0.0126037581        1.0118714479      -34.6244143193
atom         0.5660100000        3.4024300000        6.0113000000 O         0.0000000000         0.0000000000         0.0135849621      -45.3957023963      -88.1505101297
atom         0.5660100000        2.8116000000        8.8624300000 O         0.0000000000         0.0000000000         0.0119074276       47.6619680191       94.2259708479
atom         1.6980200000        4.9422200000        3.9298100000 O         0.0000000000         0.0000000000        -0.0140186450      -47.6641147789       94.2267150531
atom         1.6980200000        4.3513900000        1.0786800000 O         0.0000000000         0.0000000000        -0.0099718241       45.3912411854      -88.1550929111
atom         0.5660100000        0.8178200000        8.7865500000 O         0.0000000000         0.0000000000         0.0139307103      -45.4031950643       88.1443340418
atom         0.5660100000        0.2269900000        5.9354300000 O         0.0000000000         0.0000000000         0.0116536915       47.6722719452      -94.2234635158
atom         1.6980200000        2.3576200000        1.0028100000 O         0.0000000000         0.0000000000        -0.0114358636      -47.6686053180      -94.2275473616
atom         1.6980200000        1.7667900000        3.8539300000 O         0.0000000000         0.0000000000        -0.0120010124       45.3989791229       88.1436946141
atom         0.5660100000        8.5716400000        6.0113000000 O         0.0000000000         0.0000000000         0.0129853878      -45.3950461758      -88.1478120456
atom         0.5660100000        7.9808100000        8.8624300000 O         0.0000000000         0.0000000000         0.0118151854       47.6694061695       94.2228660703
atom         1.6980200000       10.1114400000        3.9298100000 O         0.0000000000         0.0000000000        -0.0127503648      -47.6646577068       94.2225788185
atom         1.6980200000        9.5206000000        1.0786800000 O         0.0000000000         0.0000000000        -0.0144225099       45.3974319374      -88.1554325517
atom         0.5660100000        5.9870300000        8.7865500000 O         0.0000000000         0.0000000000         0.0139768314      -45.4032558495       88.1443801629
atom         0.5660100000        5.3962000000        5.9354300000 O         0.0000000000         0.0000000000         0.0132679999       47.6669973474      -94.2241092111
atom         1.6980200000        7.5268300000        1.0028100000 O         0.0000000000         0.0000000000        -0.0138341606      -47.6627814060      -94.2240798829
atom         1.6980200000        6.9360000000        3.8539300000 O         0.0000000000         0.0000000000        -0.0135691296       45.4045640330       88.1453780341
atom         2.8300400000        3.4024300000        6.0113000000 O         0.0000000000         0.0000000000         0.0105326473      -45.3931804002      -88.1472816530
atom         2.8300400000        2.8116000000        8.8624300000 O         0.0000000000         0.0000000000         0.0123363450       47.6632824704       94.2249100626
atom         3.9620500000        4.9422200000        3.9298100000 O         0.0000000000         0.0000000000        -0.0107790960      -47.6646221109       94.2259309944
atom         3.9620500000        4.3513900000        1.0786800000 O         0.0000000000         0.0000000000        -0.0114352770       45.3901112185      -88.1565226651
atom         2.8300400000        0.8178200000        8.7865500000 O         0.0000000000         0.0000000000         0.0118238980      -45.4036939999       88.1418204421
atom         2.8300400000        0.2269900000        5.9354300000 O         0.0000000000         0.0000000000         0.0147345819       47.6664522906      -94.2187361035
atom         3.9620500000        2.3576200000        1.0028100000 O         0.0000000000         0.0000000000        -0.0134771902      -47.6663453843      -94.2301762640
atom         3.9620500000        1.7667900000        3.8539300000 O         0.0000000000         0.0000000000        -0.0128879515       45.3984026092       88.1464388193
atom         2.8300400000        8.5716400000        6.0113000000 O         0.0000000000         0.0000000000         0.0130693076      -45.3923396952      -88.1460363834
atom         2.8300400000        7.9808100000        8.8624300000 O         0.0000000000         0.0000000000         0.0116214680       47.6684984117       94.2219897695
atom         3.9620500000       10.1114400000        3.9298100000 O         0.0000000000         0.0000000000        -0.0107330350      -47.6626053180       94.2203880665
atom         3.9620500000        9.5206000000        1.0786800000 O         0.0000000000         0.0000000000        -0.0122423962       45.3963942128      -88.1551097040
atom         2.8300400000        5.9870300000        8.7865500000 O         0.0000000000         0.0000000000         0.0128846832      -45.4026017577       88.1420049264
atom         2.8300400000        5.3962000000        5.9354300000 O         0.0000000000         0.0000000000         0.0118290129       47.6648904411      -94.2200274941
atom         3.9620500000        7.5268300000        1.0028100000 O         0.0000000000         0.0000000000        -0.0135233113      -47.6611441071      -94.2234111270
atom         3.9620500000        6.9360000000        3.8539300000 O         0.0000000000         0.0000000000        -0.0114581976       45.4048407596       88.1428874949
atom         5.0940700000        3.4024300000        6.0113000000 O         0.0000000000         0.0000000000         0.0127727888      -45.3940797615      -88.1489189519
atom         5.0940700000        2.8116000000        8.8624300000 O         0.0000000000         0.0000000000         0.0128084343       47.6632363493       94.2274236624
atom         6.2260800000        4.9422200000        3.9298100000 O         0.0000000000         0.0000000000        -0.0117367707      -47.6663285915       94.2284445942
atom         6.2260800000        4.3513900000        1.0786800000 O         0.0000000000         0.0000000000        -0.0156059678       45.3918638202      -88.1576756925
atom         5.0940700000        0.8178200000        8.7865500000 O         0.0000000000         0.0000000000         0.0110661682      -45.4013648846       88.1474933369
atom         5.0940700000        0.2269900000        5.9354300000 O         0.0000000000         0.0000000000         0.0148607530       47.6667751383      -94.2244551194
atom         6.2260800000        2.3576200000        1.0028100000 O         0.0000000000         0.0000000000        -0.0140889466      -47.6694585583      -94.2300609613
atom         6.2260800000        1.7667900000        3.8539300000 O         0.0000000000         0.0000000000        -0.0126079566       45.3976185506       88.1458623056
atom         5.0940700000        8.5716400000        6.0113000000 O         0.0000000000         0.0000000000         0.0138105135      -45.3908407596      -88.1505562508
atom         5.0940700000        7.9808100000        8.8624300000 O         0.0000000000         0.0000000000         0.0138230984       47.6677835347       94.2269708479
atom         6.2260800000       10.1114400000        3.9298100000 O         0.0000000000         0.0000000000        -0.0155187506      -47.6612216852       94.2251154788
atom         6.2260800000        9.5206000000        1.0786800000 O         0.0000000000         0.0000000000        -0.0102097996       45.3939728552      -88.1567700634
atom         5.0940700000        5.9870300000        8.7865500000 O         0.0000000000         0.0000000000         0.0127495882      -45.4002034607       88.1450489188
atom         5.0940700000        5.3962000000        5.9354300000 O         0.0000000000         0.0000000000         0.0122319206       47.6653977731      -94.2244781799
atom         6.2260800000        7.5268300000        1.0028100000 O         0.0000000000         0.0000000000        -0.0108835304      -47.6590225367      -94.2274467229
atom         6.2260800000        6.9360000000        3.8539300000 O         0.0000000000         0.0000000000        -0.0114318687       45.4036646717       88.1461851533
atom         7.3581000000        3.4024300000        6.0113000000 O         0.0000000000         0.0000000000         0.0121625762      -45.3934571267      -88.1528161845
atom         7.3581000000        2.8116000000        8.8624300000 O         0.0000000000         0.0000000000         0.0131192836       47.6644585583       94.2272391780
atom         8.4901100000        4.9422200000        3.9298100000 O         0.0000000000         0.0000000000        -0.0139828769      -47.6652762027       94.2270148402
atom         8.4901100000        4.3513900000        1.0786800000 O         0.0000000000         0.0000000000        -0.0133082355       45.3935556366      -88.1567993917
atom         7.3581000000        0.8178200000        8.7865500000 O         0.0000000000         0.0000000000         0.0135691296      -45.4038784843       88.1500299971
atom         7.3581000000        0.2269900000        5.9354300000 O         0.0000000000         0.0000000000         0.0111821276       47.6673516520      -94.2251469358
atom         8.4901100000        2.3576200000        1.0028100000 O         0.0000000000         0.0000000000        -0.0133371815      -47.6701273142      -94.2262559709
atom         8.4901100000        1.7667900000        3.8539300000 O         0.0000000000         0.0000000000        -0.0143919213       45.3986416111       88.1436715536
atom         7.3581000000        8.5716400000        6.0113000000 O         0.0000000000         0.0000000000         0.0116091230      -45.3897569139      -88.1530698506
atom         7.3581000000        7.9808100000        8.8624300000 O         0.0000000000         0.0000000000         0.0123121644       47.6679449586       94.2287003890
atom         8.4901100000       10.1114400000        3.9298100000 O         0.0000000000         0.0000000000        -0.0124840013      -47.6635591969       94.2259225980
atom         8.4901100000        9.5206000000        1.0786800000 O         0.0000000000         0.0000000000        -0.0126394796       45.3949413983      -88.1576233037
atom         7.3581000000        5.9870300000        8.7865500000 O         0.0000000000         0.0000000000         0.0110324693      -45.3996269470       88.1466170360
atom         7.3581000000        5.3962000000        5.9354300000 O         0.0000000000         0.0000000000         0.0120815589       47.6645445328      -94.2268764769
atom         8.4901100000        7.5268300000        1.0028100000 O         0.0000000000         0.0000000000        -0.0134986054      -47.6591231753      -94.2289917796
atom         8.4901100000        6.9360000000        3.8539300000 O         0.0000000000         0.0000000000        -0.0122472903       45.4048030350       88.1495750539
energy    -24350.8431528958
charge 0
end
begin
comment generated by PY
lattice         9.1014022080         0.0000000000         0.0000000000
lattice         0.0000000000        10.3901177280         0.0000000000
lattice         0.0000000000         0.0000000000         9.9145629840
atom         0.5688400000        3.1566000000        7.4779700000 Cu         0.0000000000         0.0000000000         0.0077196529       -2.5522152692       -1.0089587949
atom         1.7065100000        4.6359900000        2.5206900000 Cu         0.0000000000         0.0000000000        -0.0043459137        2.5549917829       -1.0037891875
atom         0.5688400000        0.5590700000        7.3938700000 Cu         0.0000000000         0.0000000000         0.0085729032       -2.5581769059        0.9929663398
atom         1.7065100000        2.0384600000        2.4365900000 Cu         0.0000000000         0.0000000000        -0.0050838506        2.5590070857        0.9968273379
atom         0.5688400000        3.3832000000        0.9763200000 Cu         0.0000000000         0.0000000000         0.0114349247       -0.9482908322       34.2973125997
atom         1.7065100000        4.4093900000        5.9336000000 Cu         0.0000000000         0.0000000000        -0.0065920859        0.9591050705       34.2920903906
atom         0.5688400000        0.7856700000        3.9809600000 Cu         0.0000000000         0.0000000000         0.0106048449       -0.9507207990      -34.2905138769
atom         1.7065100000        1.8118600000        8.9382500000 Cu         0.0000000000         0.0000000000        -0.0069610247        0.9603899807      -34.2969205704
atom         0.5688400000        8.3516600000        7.4779700000 Cu         0.0000000000         0.0000000000         0.0064513228       -2.5541085758       -1.0094581562
atom         1.7065100000        9.8310500000        2.5206900000 Cu         0.0000000000         0.0000000000        -0.0051069138        2.5544689353       -1.0028590078
atom         0.5688400000        5.7541300000        7.3938700000 Cu         0.0000000000         0.0000000000         0.0064743833       -2.5617525681        0.9959508242
atom         1.7065100000        7.2335200000        2.4365900000 Cu         0.0000000000         0.0000000000        -0.0054758799        2.5549460876        0.9967965195
atom         0.5688400000        8.5782600000        0.9763200000 Cu         0.0000000000         0.0000000000         0.0097515047       -0.9549899807       34.2952287539
atom         1.7065100000        9.6044500000        5.9336000000 Cu         0.0000000000         0.0000000000        -0.0063383299        0.9518589494       34.2925138769
atom         0.5688400000        5.9807300000        3.9809600000 Cu         0.0000000000         0.0000000000         0.0113196219       -0.9538285568      -34.2899520274
atom         1.7065100000        7.0069200000        8.9382500000 Cu         0.0000000000         0.0000000000        -0.0072838723        0.9545598010      -34.2959059063
atom         2.8441900000        3.1566000000        7.4779700000 Cu         0.0000000000         0.0000000000         0.0044403750       -2.5532529939       -1.0092585820
atom         3.9818600000        4.6359900000        2.5206900000 Cu         0.0000000000         0.0000000000        -0.0084716434        2.5550379040       -1.0032126738
atom         2.8441900000        0.5590700000        7.3938700000 Cu         0.0000000000         0.0000000000         0.0048785274       -2.5576695739        0.9947189415
atom         3.9818600000        2.0384600000        2.4365900000 Cu         0.0000000000         0.0000000000        -0.0076414637        2.5584305720        0.9968965195
atom         2.8441900000        3.3832000000        0.9763200000 Cu         0.0000000000         0.0000000000         0.0065162494       -0.9490748908       34.2961134512
atom         3.9818600000        4.4093900000        5.9336000000 Cu         0.0000000000         0.0000000000        -0.0084282160        0.9580673459       34.2919981485
atom         2.8441900000        0.7856700000        3.9809600000 Cu         0.0000000000         0.0000000000         0.0076001252       -0.9500059220      -34.2908828457
atom         3.9818600000        1.8118600000        8.9382500000 Cu         0.0000000000         0.0000000000        -0.0096965162        0.9595598010      -34.2970819942
atom         2.8441900000        8.3516600000        7.4779700000 Cu         0.0000000000         0.0000000000         0.0055242207       -2.5548926344       -1.0092736719
atom         3.9818600000        9.8310500000        2.5206900000 Cu         0.0000000000         0.0000000000        -0.0051970476        2.5544689353       -1.0029051288
atom         2.8441900000        5.7541300000        7.3938700000 Cu         0.0000000000         0.0000000000         0.0058701289       -2.5613144177        0.9956740976
atom         3.9818600000        7.2335200000        2.4365900000 Cu         0.0000000000         0.0000000000        -0.0064653757        2.5552458747        0.9963583691
atom         2.8441900000        8.5782600000        0.9763200000 Cu         0.0000000000         0.0000000000         0.0071158237       -0.9555434338       34.2947444824
atom         3.9818600000        9.6044500000        5.9336000000 Cu         0.0000000000         0.0000000000        -0.0087279132        0.9503600138       34.2935977227
atom         2.8441900000        5.9807300000        3.9809600000 Cu         0.0000000000         0.0000000000         0.0077615190       -0.9531136799      -34.2912979356
atom         3.9818600000        7.0069200000        8.9382500000 Cu         0.0000000000         0.0000000000        -0.0084051255        0.9542369533      -34.2956753008
atom         5.1195400000        3.1566000000        7.4779700000 Cu         0.0000000000         0.0000000000         0.0053354049       -2.5522383298       -1.0088434921
atom         6.2572100000        4.6359900000        2.5206900000 Cu         0.0000000000         0.0000000000        -0.0064005296        2.5557066599       -1.0031665527
atom         5.1195400000        0.5590700000        7.3938700000 Cu         0.0000000000         0.0000000000         0.0034444410       -2.5579001794        0.9933583691
atom         6.2572100000        2.0384600000        2.4365900000 Cu         0.0000000000         0.0000000000        -0.0062852268        2.5575312106        0.9963200058
atom         5.1195400000        3.3832000000        0.9763200000 Cu         0.0000000000         0.0000000000         0.0080591373       -0.9484522560       34.2964824200
atom         6.2572100000        4.4093900000        5.9336000000 Cu         0.0000000000         0.0000000000        -0.0065855411        0.9588975256       34.2910296054
atom         5.1195400000        0.7856700000        3.9809600000 Cu         0.0000000000         0.0000000000         0.0081052884       -0.9508822229      -34.2904908164
atom         6.2572100000        1.8118600000        8.9382500000 Cu         0.0000000000         0.0000000000        -0.0072312064        0.9608050705      -34.2950987871
atom         5.1195400000        8.3516600000        7.4779700000 Cu         0.0000000000         0.0000000000         0.0066729167       -2.5560456618       -1.0094120352
atom         6.2572100000        9.8310500000        2.5206900000 Cu         0.0000000000         0.0000000000        -0.0059162600        2.5536387555       -1.0039197930
atom         5.1195400000        5.7541300000        7.3938700000 Cu         0.0000000000         0.0000000000         0.0067190368       -2.5606226013        0.9961353086