begin
comment generated by PY
lattice        12.0000000000         0.0000000000         0.0000000000
lattice         0.0000000000        12.0000000000         0.0000000000
lattice         0.0000000000         0.0000000000        20.0000000000
atom         0.0000000000        0.0000000000        0.0000000000 O         0.0000000000         0.0000000000         0.0002997871       -0.0002767266   -29153.2889726633
atom         0.0000000000        0.0000000000        0.5000000000 O         0.0000000000         0.0000000000        -0.0002997871        0.0002767266    29153.2889726633
energy      3782.7869947460
charge 0
end
begin
comment generated by PY
lattice        12.0000000000         0.0000000000         0.0000000000
lattice         0.0000000000        12.0000000000         0.0000000000
lattice         0.0000000000         0.0000000000        20.0000000000
atom         0.0000000000        0.0000000000        0.0000000000 O         0.0000000000         0.0000000000         0.0014989356       -0.0001383633   -19475.6263904956
atom         0.0000000000        0.0000000000        0.5600000000 O         0.0000000000         0.0000000000        -0.0014989356        0.0001383633    19475.6263904956
energy      2343.0414971137
charge 0
end
begin
comment generated by PY
lattice        12.0000000000         0.0000000000         0.0000000000
lattice         0.0000000000        12.0000000000         0.0000000000
lattice         0.0000000000         0.0000000000        20.0000000000
atom         0.0000000000        0.0000000000        0.0000000000 O         0.0000000000         0.0000000000        -0.0005534532        0.0004150899   -12956.0226643153
atom         0.0000000000        0.0000000000        0.6200000000 O         0.0000000000         0.0000000000         0.0005534532       -0.0004150899    12956.0226643153
energy      1382.3788810098
charge 0
end
begin
comment generated by PY
lattice        12.0000000000         0.0000000000         0.0000000000
lattice         0.0000000000        12.0000000000         0.0000000000
lattice         0.0000000000         0.0000000000        20.0000000000
atom         0.0000000000        0.0000000000        0.0000000000 O         0.0000000000         0.0000000000        -0.0007148770        0.0002306055    -8547.7565901516
atom         0.0000000000        0.0000000000        0.6800000000 O         0.0000000000         0.0000000000         0.0007148770       -0.0002306055     8547.7565901516
energy       745.3121610435
charge 0
end
begin
comment generated by PY
lattice        12.0000000000         0.0000000000         0.0000000000
lattice         0.0000000000        12.0000000000         0.0000000000
lattice         0.0000000000         0.0000000000        20.0000000000
atom         0.0000000000        0.0000000000        0.0000000000 O         0.0000000000         0.0000000000        -0.0000230605       -0.0000230605    -5577.6213026966
atom         0.0000000000        0.0000000000        0.7400000000 O         0.0000000000         0.0000000000         0.0000230605        0.0000230605     5577.6213026966
energy       326.7807918177
charge 0
end
begin
comment generated by PY
lattice        12.0000000000         0.0000000000         0.0000000000
lattice         0.0000000000        12.0000000000         0.0000000000
lattice         0.0000000000         0.0000000000        20.0000000000
atom         0.0000000000        0.0000000000        0.0000000000 O         0.0000000000         0.0000000000        -0.0000000000       -0.0000230605    -3570.0334083208
atom         0.0000000000        0.0000000000        0.8000000000 O         0.0000000000         0.0000000000         0.0000000000        0.0000230605     3570.0334083208
energy        56.2996100213
charge 0
end
begin
comment generated by PY
lattice        12.0000000000         0.0000000000         0.0000000000
lattice         0.0000000000        12.0000000000         0.0000000000
lattice         0.0000000000         0.0000000000        20.0000000000
atom         0.0000000000        0.0000000000        0.0000000000 O         0.0000000000         0.0000000000         0.0000230605        0.0000230605    -2226.8162433787
atom         0.0000000000        0.0000000000        0.8600000000 O         0.0000000000         0.0000000000        -0.0000230605       -0.0000230605     2226.8162433787
energy      -114.9068199461
charge 0
end
begin
comment generated by PY
lattice        12.0000000000         0.0000000000         0.0000000000
lattice         0.0000000000        12.0000000000         0.0000000000
lattice         0.0000000000         0.0000000000        20.0000000000
atom         0.0000000000        0.0000000000        0.0000000000 O         0.0000000000         0.0000000000        -0.0000000000       -0.0000000000    -1328.5007426696
atom         0.0000000000        0.0000000000        0.9200000000 O         0.0000000000         0.0000000000         0.0000000000        0.0000000000     1328.5007426696
energy      -219.7693477777
charge 0
end
begin
comment generated by PY
lattice        12.0000000000         0.0000000000         0.0000000000
lattice         0.0000000000        12.0000000000         0.0000000000
lattice         0.0000000000         0.0000000000        20.0000000000
atom         0.0000000000        0.0000000000        0.0000000000 O         0.0000000000         0.0000000000        -0.0000230605        0.0000000000     -727.1476759401
atom         0.0000000000        0.0000000000        0.9800000000 O         0.0000000000         0.0000000000         0.0000230605       -0.0000000000      727.1476759401
energy      -280.2349048555
charge 0
end
begin
comment generated by PY
lattice        12.0000000000         0.0000000000         0.0000000000
lattice         0.0000000000        12.0000000000         0.0000000000
lattice         0.0000000000         0.0000000000        20.0000000000
atom         0.0000000000        0.0000000000        0.0000000000 O         0.0000000000         0.0000000000         0.0000000000       -0.0000000000     -326.5616158542
atom         0.0000000000        0.0000000000        1.0400000000 O         0.0000000000         0.0000000000        -0.0000000000        0.0000000000      326.5616158542
energy      -311.0233148908
charge 0
end
begin
comment generated by PY
lattice        12.0000000000         0.0000000000         0.0000000000
lattice         0.0000000000        12.0000000000         0.0000000000
lattice         0.0000000000         0.0000000000        20.0000000000
atom         0.0000000000        0.0000000000        0.0000000000 O         0.0000000000         0.0000000000         0.0000000000       -0.0000000000      -64.3152911966
atom         0.0000000000        0.0000000000        1.1000000000 O         0.0000000000         0.0000000000        -0.0000000000        0.0000000000       64.3152911966
energy      -322.1778818906
charge 0
end
begin
comment generated by PY
lattice        12.0000000000         0.0000000000         0.0000000000
lattice         0.0000000000        12.0000000000         0.0000000000
lattice         0.0000000000         0.0000000000        20.0000000000
atom         0.0000000000        0.0000000000        0.0000000000 O         0.0000000000         0.0000000000        -0.0000000000        0.0000000000      101.7959000560
atom         0.0000000000        0.0000000000        1.1600000000 O         0.0000000000         0.0000000000         0.0000000000       -0.0000000000     -101.7959000560
energy      -320.6567230399
charge 0
end
begin
comment generated by PY
lattice        12.0000000000         0.0000000000         0.0000000000
lattice         0.0000000000        12.0000000000         0.0000000000
lattice         0.0000000000         0.0000000000        20.0000000000
atom         0.0000000000        0.0000000000        0.0000000000 O         0.0000000000         0.0000000000         0.0000000000        0.0000000000      201.8606124570
atom         0.0000000000        0.0000000000        1.2200000000 O         0.0000000000         0.0000000000        -0.0000000000       -0.0000000000     -201.8606124570
energy      -311.2781447186
charge 0
end
begin
comment generated by PY
lattice        12.0000000000         0.0000000000         0.0000000000
lattice         0.0000000000        12.0000000000         0.0000000000
lattice         0.0000000000         0.0000000000        20.0000000000
atom         0.0000000000        0.0000000000        0.0000000000 O         0.0000000000         0.0000000000         0.0000000000       -0.0000230605      257.9179891038
atom         0.0000000000        0.0000000000        1.2800000000 O         0.0000000000         0.0000000000        -0.0000000000        0.0000230605     -257.9179891038
energy      -297.3096468693
charge 0
end
begin
comment generated by PY
lattice        12.0000000000         0.0000000000         0.0000000000
lattice         0.0000000000        12.0000000000         0.0000000000
lattice         0.0000000000         0.0000000000        20.0000000000
atom         0.0000000000        0.0000000000        0.0000000000 O         0.0000000000         0.0000000000        -0.0000000000       -0.0000000000      285.7716671405
atom         0.0000000000        0.0000000000        1.3400000000 O         0.0000000000         0.0000000000         0.0000000000        0.0000000000     -285.7716671405
energy      -280.8891516191
charge 0
end
begin
comment generated by PY
lattice        12.0000000000         0.0000000000         0.0000000000
lattice         0.0000000000        12.0000000000         0.0000000000
lattice         0.0000000000         0.0000000000        20.0000000000
atom         0.0000000000        0.0000000000        0.0000000000 O         0.0000000000         0.0000000000        -0.0000000000        0.0000000000      296.1056879633
atom         0.0000000000        0.0000000000        1.4000000000 O         0.0000000000         0.0000000000         0.0000000000       -0.0000000000     -296.1056879633
energy      -263.3655682458
charge 0
end
begin
comment generated by PY
lattice        12.0000000000         0.0000000000         0.0000000000
lattice         0.0000000000        12.0000000000         0.0000000000
lattice         0.0000000000         0.0000000000        20.0000000000
atom         0.0000000000        0.0000000000        0.0000000000 O         0.0000000000         0.0000000000         0.0000000000        0.0000000000      295.6343589405
atom         0.0000000000        0.0000000000        1.4600000000 O         0.0000000000         0.0000000000        -0.0000000000       -0.0000000000     -295.6343589405
energy      -245.5714725931
charge 0
end
begin
comment generated by PY
lattice        12.0000000000         0.0000000000         0.0000000000
lattice         0.0000000000        12.0000000000         0.0000000000
lattice         0.0000000000         0.0000000000        20.0000000000
atom         0.0000000000        0.0000000000        0.0000000000 O         0.0000000000         0.0000000000         0.0000000000       -0.0000000000      288.3447388275
atom         0.0000000000        0.0000000000        1.5200000000 O         0.0000000000         0.0000000000         0.0000000000        0.0000000000     -288.3447388275
energy      -228.0252685172
charge 0
end
begin
comment generated by PY
lattice        12.0000000000         0.0000000000         0.0000000000
lattice         0.0000000000        12.0000000000         0.0000000000
lattice         0.0000000000         0.0000000000        20.0000000000
atom         0.0000000000        0.0000000000        0.0000000000 O         0.0000000000         0.0000000000        -0.0000000000        0.0000000000      276.6521122345
atom         0.0000000000        0.0000000000        1.5800000000 O         0.0000000000         0.0000000000         0.0000000000       -0.0000000000     -276.6521122345
energy      -211.0580148160
charge 0
end
begin
comment generated by PY
lattice        12.0000000000         0.0000000000         0.0000000000
lattice         0.0000000000        12.0000000000         0.0000000000
lattice         0.0000000000         0.0000000000        20.0000000000
atom         0.0000000000        0.0000000000        0.0000000000 O         0.0000000000         0.0000000000        -0.0000000000        0.0000000000      262.1776207276
atom         0.0000000000        0.0000000000        1.6400000000 O         0.0000000000         0.0000000000         0.0000000000       -0.0000000000     -262.1776207276
energy      -194.8825927215
charge 0
end
begin
comment generated by PY
lattice        12.0000000000         0.0000000000         0.0000000000
lattice         0.0000000000        12.0000000000         0.0000000000
lattice         0.0000000000         0.0000000000        20.0000000000
atom         0.0000000000        0.0000000000        0.0000000000 O         0.0000000000         0.0000000000         0.0000000000        0.0000000000      246.1193420042
atom         0.0000000000        0.0000000000        1.7000000000 O         0.0000000000         0.0000000000        -0.0000000000       -0.0000000000     -246.1193420042
energy      -179.6282491061
charge 0
end
begin
comment generated by PY
lattice        12.0000000000         0.0000000000         0.0000000000
lattice         0.0000000000        12.0000000000         0.0000000000
lattice         0.0000000000         0.0000000000        20.0000000000
atom         0.0000000000        0.0000000000        0.0000000000 O         0.0000000000         0.0000000000         0.0000000000        0.0000000000      229.3667263126
atom         0.0000000000        0.0000000000        1.7600000000 O         0.0000000000         0.0000000000        -0.0000000000       -0.0000000000     -229.3667263126
energy      -165.3619840997
charge 0
end
begin
comment generated by PY
lattice        12.0000000000         0.0000000000         0.0000000000
lattice         0.0000000000        12.0000000000         0.0000000000
lattice         0.0000000000         0.0000000000        20.0000000000
atom         0.0000000000        0.0000000000        0.0000000000 O         0.0000000000         0.0000000000        -0.0000000000       -0.0000000000      212.5630787346
atom         0.0000000000        0.0000000000        1.8200000000 O         0.0000000000         0.0000000000         0.0000000000        0.0000000000     -212.5630787346
energy      -152.1050147025
charge 0
end
begin
comment generated by PY
lattice        12.0000000000         0.0000000000         0.0000000000
lattice         0.0000000000        12.0000000000         0.0000000000
lattice         0.0000000000         0.0000000000        20.0000000000
atom         0.0000000000        0.0000000000        0.0000000000 O         0.0000000000         0.0000000000         0.0000000000        0.0000000000      196.1257413044
atom         0.0000000000        0.0000000000        1.8800000000 O         0.0000000000         0.0000000000        -0.0000000000        0.0000000000     -196.1257413044
energy      -139.8468962937
charge 0
end
begin
comment generated by PY
lattice        12.0000000000         0.0000000000         0.0000000000
lattice         0.0000000000        12.0000000000         0.0000000000
lattice         0.0000000000         0.0000000000        20.0000000000
atom         0.0000000000        0.0000000000        0.0000000000 O         0.0000000000         0.0000000000         0.0000000000       -0.0000000000      180.2964926282
atom         0.0000000000        0.0000000000        1.9400000000 O         0.0000000000         0.0000000000        -0.0000000000        0.0000000000     -180.2964926282
energy      -128.5568499411
charge 0
end
begin
comment generated by PY
lattice        12.0000000000         0.0000000000         0.0000000000
lattice         0.0000000000        12.0000000000         0.0000000000
lattice         0.0000000000         0.0000000000        20.0000000000
atom         0.0000000000        0.0000000000        0.0000000000 O         0.0000000000         0.0000000000         0.0000000000       -0.0000000000      164.5689823149
atom         0.0000000000        0.0000000000        2.0000000000 O         0.0000000000         0.0000000000        -0.0000000000        0.0000000000     -164.5689823149
energy      -118.1547953834
charge 0
end
begin
comment generated by PY
lattice        12.0000000000         0.0000000000         0.0000000000
lattice         0.0000000000        12.0000000000         0.0000000000
lattice         0.0000000000         0.0000000000        20.0000000000
atom         0.0000000000        0.0000000000        0.0000000000 O         0.0000000000         0.0000000000        -0.0000000000        0.0000000000       40.8307537118
atom         0.0000000000        0.0000000000        2.0600000000 O         0.0000000000         0.0000000000         0.0000000000       -0.0000000000      -40.8307537118
energy      -112.0677734133
charge 0
end
begin
comment generated by PY
lattice        12.0000000000         0.0000000000         0.0000000000
lattice         0.0000000000        12.0000000000         0.0000000000
lattice         0.0000000000         0.0000000000        20.0000000000
atom         0.0000000000        0.0000000000        0.0000000000 O         0.0000000000         0.0000000000        -0.0000230605        0.0000230605       41.7090453414
atom         0.0000000000        0.0000000000        2.1200000000 O         0.0000000000         0.0000000000         0.0000230605       -0.0000230605      -41.7090453414
energy      -109.5852635307
charge 0
end
begin
comment generated by PY
lattice        12.0000000000         0.0000000000         0.0000000000
lattice         0.0000000000        12.0000000000         0.0000000000
lattice         0.0000000000         0.0000000000        20.0000000000
atom         0.0000000000        0.0000000000        0.0000000000 O         0.0000000000         0.0000000000        -0.0000000000       -0.0000000000       41.4598975001
atom         0.0000000000        0.0000000000        2.1800000000 O         0.0000000000         0.0000000000         0.0000000000        0.0000000000      -41.4598975001
energy      -107.0859359149
charge 0
end
begin
comment generated by PY
lattice        12.0000000000         0.0000000000         0.0000000000
lattice         0.0000000000        12.0000000000         0.0000000000
lattice         0.0000000000         0.0000000000        20.0000000000
atom         0.0000000000        0.0000000000        0.0000000000 O         0.0000000000         0.0000000000        -0.0000000000       -0.0000000000       40.4141659464
atom         0.0000000000        0.0000000000        2.2400000000 O         0.0000000000         0.0000000000         0.0000000000        0.0000000000      -40.4141659464
energy      -104.6266996114
charge 0
end
begin
comment generated by PY
lattice        12.0000000000         0.0000000000         0.0000000000
lattice         0.0000000000        12.0000000000         0.0000000000
lattice         0.0000000000         0.0000000000        20.0000000000
atom         0.0000000000        0.0000000000        0.0000000000 O         0.0000000000         0.0000000000         0.0000000000       -0.0000000000       38.8192428891
atom         0.0000000000        0.0000000000        2.3000000000 O         0.0000000000         0.0000000000         0.0000000000       -0.0000000000      -38.8192428891
energy      -102.2476206301
charge 0
end
begin
comment generated by PY
lattice        12.0000000000         0.0000000000         0.0000000000
lattice         0.0000000000        12.0000000000         0.0000000000
lattice         0.0000000000         0.0000000000        20.0000000000
atom         0.0000000000        0.0000000000        0.0000000000 O         0.0000000000         0.0000000000        -0.0000000000        0.0000000000       36.8869679842
atom         0.0000000000        0.0000000000        2.3600000000 O         0.0000000000         0.0000000000         0.0000000000       -0.0000000000      -36.8869679842
energy       -99.9746939986
charge 0
end
begin
comment generated by PY
lattice        12.0000000000         0.0000000000         0.0000000000
lattice         0.0000000000        12.0000000000         0.0000000000
lattice         0.0000000000         0.0000000000        20.0000000000
atom         0.0000000000        0.0000000000        0.0000000000 O         0.0000000000         0.0000000000        -0.0000000000       -0.0000000000       34.7460772383
atom         0.0000000000        0.0000000000        2.4200000000 O         0.0000000000         0.0000000000         0.0000000000        0.0000000000      -34.7460772383
energy       -97.8228325773
charge 0
end
begin
comment generated by PY
lattice        12.0000000000         0.0000000000         0.0000000000
lattice         0.0000000000        12.0000000000         0.0000000000
lattice         0.0000000000         0.0000000000        20.0000000000
atom         0.0000000000        0.0000000000        0.0000000000 O         0.0000000000         0.0000000000        -0.0000230605        0.0000230605       32.5097703819
atom         0.0000000000        0.0000000000        2.4800000000 O         0.0000000000         0.0000000000         0.0000230605       -0.0000230605      -32.5097703819
energy       -95.7986934593
charge 0
end
begin
comment generated by PY
lattice        12.0000000000         0.0000000000         0.0000000000
lattice         0.0000000000        12.0000000000         0.0000000000
lattice         0.0000000000         0.0000000000        20.0000000000
atom         0.0000000000        0.0000000000        0.0000000000 O         0.0000000000         0.0000000000        -0.0000461211       -0.0002075449       30.2315284622
atom         0.0000000000        0.0000000000        2.5400000000 O         0.0000000000         0.0000000000         0.0000461211        0.0002075449      -30.2315284622
energy       -93.9011777522
charge 0
end
begin
comment generated by PY
lattice        12.0000000000         0.0000000000         0.0000000000
lattice         0.0000000000        12.0000000000         0.0000000000
lattice         0.0000000000         0.0000000000        20.0000000000
atom         0.0000000000        0.0000000000        0.0000000000 O         0.0000000000         0.0000000000         0.0004381504       -0.0056267737       27.1312773350
atom         0.0000000000        0.0000000000        2.6000000000 O         0.0000000000         0.0000000000        -0.0004381504        0.0056267737      -27.1312773350
energy       -92.1387731552
charge 0
end
begin
comment generated by PY
lattice        12.0000000000         0.0000000000         0.0000000000
lattice         0.0000000000        12.0000000000         0.0000000000
lattice         0.0000000000         0.0000000000        20.0000000000
atom         0.0000000000        0.0000000000        0.0000000000 O         0.0000000000         0.0000000000         0.0000230605       -0.0000461211       25.7445485817
atom         0.0000000000        0.0000000000        2.6600000000 O         0.0000000000         0.0000000000        -0.0000230605        0.0000461211      -25.7445485817
energy       -90.4701121171
charge 0
end
begin
comment generated by PY
lattice        12.0000000000         0.0000000000         0.0000000000
lattice         0.0000000000        12.0000000000         0.0000000000
lattice         0.0000000000         0.0000000000        20.0000000000
atom         0.0000000000        0.0000000000        0.0000000000 O         0.0000000000         0.0000000000         0.0000230605       -0.0000230605       23.6034839332
atom         0.0000000000        0.0000000000        2.7200000000 O         0.0000000000         0.0000000000        -0.0000230605        0.0000230605      -23.6034839332
energy       -88.9294992007
charge 0
end
begin
comment generated by PY
lattice        12.0000000000         0.0000000000         0.0000000000
lattice         0.0000000000        12.0000000000         0.0000000000
lattice         0.0000000000         0.0000000000        20.0000000000
atom         0.0000000000        0.0000000000        0.0000000000 O         0.0000000000         0.0000000000         0.0000000000       -0.0000230605       21.5425871191
atom         0.0000000000        0.0000000000        2.7800000000 O         0.0000000000         0.0000000000        -0.0000000000        0.0000230605      -21.5425871191
energy       -87.5012123255
charge 0
end
begin
comment generated by PY
lattice        12.0000000000         0.0000000000         0.0000000000
lattice         0.0000000000        12.0000000000         0.0000000000
lattice         0.0000000000         0.0000000000        20.0000000000
atom         0.0000000000        0.0000000000        0.0000000000 O         0.0000000000         0.0000000000        -0.0000000000       -0.0000000000       19.5150135188
atom         0.0000000000        0.0000000000        2.8400000000 O         0.0000000000         0.0000000000        -0.0000000000       -0.0000000000      -19.5150135188
energy       -86.1804064538
charge 0
end
begin
comment generated by PY
lattice        12.0000000000         0.0000000000         0.0000000000
lattice         0.0000000000        12.0000000000         0.0000000000
lattice         0.0000000000         0.0000000000        20.0000000000
atom         0.0000000000        0.0000000000        0.0000000000 O         0.0000000000         0.0000000000        -0.0000000000        0.0000000000       10.4553701850
atom         0.0000000000        0.0000000000        2.9000000000 O         0.0000000000         0.0000000000        -0.0000000000        0.0000000000      -10.4553701850
energy       -84.5556059783
charge 0
end
begin
comment generated by PY
lattice        12.0000000000         0.0000000000         0.0000000000
lattice         0.0000000000        12.0000000000         0.0000000000
lattice         0.0000000000         0.0000000000        20.0000000000
atom         0.0000000000        0.0000000000        0.0000000000 O         0.0000000000         0.0000000000         0.0001614238        0.0000922422       -2.1572334582
atom         0.0000000000        0.0000000000        2.9600000000 O         0.0000000000         0.0000000000        -0.0001614238       -0.0000922422        2.1572334582
energy       -86.9967049691
charge 0
end
begin
comment generated by PY
lattice        12.0000000000         0.0000000000         0.0000000000
lattice         0.0000000000        12.0000000000         0.0000000000
lattice         0.0000000000         0.0000000000        20.0000000000
atom         0.0000000000        0.0000000000        0.0000000000 O         0.0000000000         0.0000000000        -0.0005765137        0.0000230605       11.1744157668
atom         0.0000000000        0.0000000000        3.0200000000 O         0.0000000000         0.0000000000         0.0005765137       -0.0000230605      -11.1744157668
energy       -82.8563789984
charge 0
end
begin
comment generated by PY
lattice        12.0000000000         0.0000000000         0.0000000000
lattice         0.0000000000        12.0000000000         0.0000000000
lattice         0.0000000000         0.0000000000        20.0000000000
atom         0.0000000000        0.0000000000        0.0000000000 O         0.0000000000         0.0000000000         0.0001153027       -0.0005995742        6.0743218149
atom         0.0000000000        0.0000000000        3.0800000000 O         0.0000000000         0.0000000000        -0.0001153027        0.0005995742       -6.0743218149
energy       -85.5700980828
charge 0
end
begin
comment generated by PY
lattice        12.0000000000         0.0000000000         0.0000000000
lattice         0.0000000000        12.0000000000         0.0000000000
lattice         0.0000000000         0.0000000000        20.0000000000
atom         0.0000000000        0.0000000000        0.0000000000 O         0.0000000000         0.0000000000        -0.0000000000        0.0000000000        5.7747090958
atom         0.0000000000        0.0000000000        3.1400000000 O         0.0000000000         0.0000000000         0.0000000000       -0.0000000000       -5.7747090958
energy       -78.1165984078
charge 0
end
begin
comment generated by PY
lattice        12.0000000000         0.0000000000         0.0000000000
lattice         0.0000000000        12.0000000000         0.0000000000
lattice         0.0000000000         0.0000000000        20.0000000000
atom         0.0000000000        0.0000000000        0.0000000000 O         0.0000000000         0.0000000000         0.0000230605        0.0000000000        5.5260339126
atom         0.0000000000        0.0000000000        3.2000000000 O         0.0000000000         0.0000000000        -0.0000230605       -0.0000000000       -5.5260339126
energy       -77.7293457169
charge 0
end
begin
comment generated by PY
lattice        12.0000000000         0.0000000000         0.0000000000
lattice         0.0000000000        12.0000000000         0.0000000000
lattice         0.0000000000         0.0000000000        20.0000000000
atom         0.0000000000        0.0000000000        0.0000000000 O         0.0000000000         0.0000000000         0.0000000000       -0.0000000000        5.2597294848
atom         0.0000000000        0.0000000000        3.2600000000 O         0.0000000000         0.0000000000         0.0000000000        0.0000000000       -5.2597294848
energy       -77.3747948172
charge 0
end
begin
comment generated by PY
lattice        12.0000000000         0.0000000000         0.0000000000
lattice         0.0000000000        12.0000000000         0.0000000000
lattice         0.0000000000         0.0000000000        20.0000000000
atom         0.0000000000        0.0000000000        0.0000000000 O         0.0000000000         0.0000000000         0.0000000000       -0.0000000000        4.9835553268