begin
comment generated by PY
lattice         8.7499648000         0.0000000000         0.0000000000
lattice         0.0000000000         8.7499648000         0.0000000000
lattice         0.0000000000         0.0000000000         8.7499648000
atom         1.0937500000        3.2812400000        1.0937500000 Si         0.0000000000         0.0000000000         0.0032477648        0.0017071436        0.0030632804
atom         0.0000000000        0.0000000000        2.1874900000 Si         0.0000000000         0.0000000000        -0.0036603019       -0.0011697627       -0.0036788912
atom         1.0937500000        1.0937500000        3.2812400000 Si         0.0000000000         0.0000000000         0.0031555226        0.0021639190        0.0023067178
atom         0.0000000000        2.1874900000        0.0000000000 Si         0.0000000000         0.0000000000        -0.0007777334       -0.0025719849        0.0002138701
atom         3.2812400000        3.2812400000        3.2812400000 Si         0.0000000000         0.0000000000         0.0023989600        0.0027218077        0.0035750479
atom         2.1874900000        0.0000000000        0.0000000000 Si         0.0000000000         0.0000000000        -0.0023875005       -0.0010544600       -0.0013311866
atom         3.2812400000        1.0937500000        1.0937500000 Si         0.0000000000         0.0000000000         0.0038056534        0.0023484034        0.0036859152
atom         2.1874900000        2.1874900000        2.1874900000 Si         0.0000000000         0.0000000000        -0.0035405179       -0.0019032190       -0.0015573108
atom         1.0937500000        3.2812400000        5.4687300000 Si         0.0000000000         0.0000000000         0.0025098273        0.0018455068        0.0028948226
atom         0.0000000000        0.0000000000        6.5624700000 Si         0.0000000000         0.0000000000        -0.0015617921       -0.0010775205       -0.0027634933
atom         1.0937500000        1.0937500000        7.6562200000 Si         0.0000000000         0.0000000000         0.0029941088        0.0023253529       -0.0005367378
atom         0.0000000000        2.1874900000        4.3749800000 Si         0.0000000000         0.0000000000        -0.0025764362       -0.0017648658       -0.0030446653
atom         3.2812400000        3.2812400000        7.6562200000 Si         0.0000000000         0.0000000000         0.0022606067        0.0035750579        0.0018846197
atom         2.1874900000        0.0000000000        4.3749800000 Si         0.0000000000         0.0000000000        -0.0031484986       -0.0001320181       -0.0031830286
atom         3.2812400000        1.0937500000        5.4687300000 Si         0.0000000000         0.0000000000         0.0031138370        0.0032016437        0.0021338245
atom         2.1874900000        2.1874900000        6.5624700000 Si         0.0000000000         0.0000000000        -0.0032176703       -0.0010038577       -0.0020255558
atom         1.0937500000        7.6562200000        1.0937500000 Si         0.0000000000         0.0000000000         0.0012876282        0.0004087447        0.0022792318
atom         0.0000000000        4.3749800000        2.1874900000 Si         0.0000000000         0.0000000000        -0.0008238345       -0.0006002473       -0.0029178932
atom         1.0937500000        5.4687300000        3.2812400000 Si         0.0000000000         0.0000000000         0.0034783703        0.0027564593        0.0024912022
atom         0.0000000000        6.5624700000        0.0000000000 Si         0.0000000000         0.0000000000         0.0004905967       -0.0033400070       -0.0015387315
atom         3.2812400000        7.6562200000        3.2812400000 Si         0.0000000000         0.0000000000         0.0016149114       -0.0001908296        0.0015226692
atom         2.1874900000        4.3749800000        0.0000000000 Si         0.0000000000         0.0000000000        -0.0002889907       -0.0017532747       -0.0009391373
atom         3.2812400000        5.4687300000        1.0937500000 Si         0.0000000000         0.0000000000         0.0026295655        0.0015342503        0.0036859152
atom         2.1874900000        6.5624700000        2.1874900000 Si         0.0000000000         0.0000000000        -0.0015573108       -0.0029940988       -0.0013728264
atom         1.0937500000        7.6562200000        5.4687300000 Si         0.0000000000         0.0000000000         0.0019333236        0.0014695299        0.0026411666
atom         0.0000000000        4.3749800000        6.5624700000 Si         0.0000000000         0.0000000000        -0.0024150123       -0.0022606067       -0.0024867767
atom         1.0937500000        5.4687300000        7.6562200000 Si         0.0000000000         0.0000000000         0.0016565970        0.0026411666        0.0016309537
atom         0.0000000000        6.5624700000        4.3749800000 Si         0.0000000000         0.0000000000        -0.0009621978       -0.0029479877       -0.0025834544
atom         3.2812400000        7.6562200000        7.6562200000 Si         0.0000000000         0.0000000000         0.0036673001        0.0004087647       -0.0002830518
atom         2.1874900000        4.3749800000        4.3749800000 Si         0.0000000000         0.0000000000        -0.0015111897       -0.0013151142       -0.0036442296
atom         3.2812400000        5.4687300000        5.4687300000 Si         0.0000000000         0.0000000000         0.0031138370        0.0022260667        0.0030562464
atom         2.1874900000        6.5624700000        6.5624700000 Si         0.0000000000         0.0000000000        -0.0013267053       -0.0027404327       -0.0033169464
atom         5.4687300000        3.2812400000        1.0937500000 Si         0.0000000000         0.0000000000         0.0011191604        0.0023067178        0.0019563741
atom         4.3749800000        0.0000000000        2.1874900000 Si         0.0000000000         0.0000000000        -0.0028601810       -0.0028762233       -0.0038864362
atom         5.4687300000        1.0937500000        3.2812400000 Si         0.0000000000         0.0000000000         0.0033560336        0.0030632804        0.0031830186
atom         4.3749800000        2.1874900000        0.0000000000 Si         0.0000000000         0.0000000000        -0.0023067278       -0.0006579594        0.0000755269
atom         7.6562200000        3.2812400000        3.2812400000 Si         0.0000000000         0.0000000000         0.0022766490        0.0014765481        0.0035058763
atom         6.5624700000        0.0000000000        0.0000000000 Si         0.0000000000         0.0000000000        -0.0022792218       -0.0018385186       -0.0012620049
atom         7.6562200000        1.0937500000        1.0937500000 Si         0.0000000000         0.0000000000         0.0018846197        0.0007111145        0.0050926186
atom         6.5624700000        2.1874900000        2.1874900000 Si         0.0000000000         0.0000000000        -0.0025098273       -0.0023183089       -0.0027333988
atom         5.4687300000        3.2812400000        5.4687300000 Si         0.0000000000         0.0000000000         0.0018340374        0.0017763252        0.0019954612
atom         4.3749800000        0.0000000000        6.5624700000 Si         0.0000000000         0.0000000000        -0.0025834544       -0.0009852584       -0.0023484134
atom         5.4687300000        1.0937500000        7.6562200000 Si         0.0000000000         0.0000000000         0.0027334088        0.0023253529       -0.0000985874
atom         4.3749800000        2.1874900000        4.3749800000 Si         0.0000000000         0.0000000000        -0.0031368975       -0.0026411566       -0.0019608096
atom         7.6562200000        3.2812400000        7.6562200000 Si         0.0000000000         0.0000000000         0.0007316123        0.0032522103        0.0004779463
atom         6.5624700000        0.0000000000        4.3749800000 Si         0.0000000000         0.0000000000        -0.0023484134       -0.0011236216       -0.0018224563
atom         7.6562200000        1.0937500000        5.4687300000 Si         0.0000000000         0.0000000000         0.0017923775        0.0013568099        0.0031484986
atom         6.5624700000        2.1874900000        6.5624700000 Si         0.0000000000         0.0000000000        -0.0040548840       -0.0026642171       -0.0024637062
atom         5.4687300000        7.6562200000        1.0937500000 Si         0.0000000000         0.0000000000         0.0014189575        0.0019538014        0.0023484134
atom         4.3749800000        4.3749800000        2.1874900000 Si         0.0000000000         0.0000000000        -0.0028601710       -0.0022605967       -0.0032407308
atom         5.4687300000        5.4687300000        3.2812400000 Si         0.0000000000         0.0000000000         0.0027564593        0.0019493401        0.0009922666
atom         4.3749800000        6.5624700000        0.0000000000 Si         0.0000000000         0.0000000000        -0.0025373333       -0.0025790189       -0.0012619849
atom         7.6562200000        7.6562200000        3.2812400000 Si         0.0000000000         0.0000000000         0.0014234288        0.0017462764        0.0026295755
atom         6.5624700000        4.3749800000        0.0000000000 Si         0.0000000000         0.0000000000        -0.0032247142       -0.0011537004       -0.0016078932
atom         7.6562200000        5.4687300000        1.0937500000 Si         0.0000000000         0.0000000000         0.0016770748        0.0014650786        0.0035936830
atom         6.5624700000        6.5624700000        2.1874900000 Si         0.0000000000         0.0000000000        -0.0029249171       -0.0026020695       -0.0021568851
atom         5.4687300000        7.6562200000        5.4687300000 Si         0.0000000000         0.0000000000         0.0032407408        0.0015617721        0.0008885649
atom         4.3749800000        4.3749800000        6.5624700000 Si         0.0000000000         0.0000000000        -0.0037825929       -0.0016149014       -0.0027634933
atom         5.4687300000        5.4687300000        7.6562200000 Si         0.0000000000         0.0000000000         0.0019954712        0.0021799556        0.0006162896
atom         4.3749800000        6.5624700000        4.3749800000 Si         0.0000000000         0.0000000000        -0.0031368975       -0.0031324621       -0.0020530518
atom         7.6562200000        7.6562200000        7.6562200000 Si         0.0000000000         0.0000000000         0.0014926204        0.0023919818        0.0014926204
atom         6.5624700000        4.3749800000        4.3749800000 Si         0.0000000000         0.0000000000        -0.0022100401       -0.0028601710       -0.0027448682
atom         7.6562200000        5.4687300000        5.4687300000 Si         0.0000000000         0.0000000000         0.0019999225        0.0019724107        0.0027795299
atom         6.5624700000        6.5624700000        6.5624700000 Si         0.0000000000         0.0000000000        -0.0024867667       -0.0027173722       -0.0023022823
energy    -13249.1903684596
charge 0
end
begin
comment generated by PY
lattice         8.7937146240         0.0000000000         0.0000000000
lattice         0.0000000000         8.7937146240         0.0000000000
lattice         0.0000000000         0.0000000000         8.7937146240
atom         1.0992100000        3.2976400000        1.0992100000 Si         0.0000000000         0.0000000000        -0.0027515638       -0.0018176874       -0.0014140521
atom         0.0000000000        0.0000000000        2.1984300000 Si         0.0000000000         0.0000000000         0.0006473455        0.0006704061        0.0023118300
atom         1.0992100000        1.0992100000        3.2976400000 Si         0.0000000000         0.0000000000        -0.0021289290       -0.0019905658       -0.0021866562
atom         0.0000000000        2.1984300000        0.0000000000 Si         0.0000000000         0.0000000000         0.0001861346        0.0018506190        0.0004628611
atom         3.2976400000        3.2976400000        3.2976400000 Si         0.0000000000         0.0000000000        -0.0020252323       -0.0020944140       -0.0031551992
atom         2.1984300000        0.0000000000        0.0000000000 Si         0.0000000000         0.0000000000         0.0026807988        0.0006012244        0.0001630740
atom         3.2976400000        1.0992100000        1.0992100000 Si         0.0000000000         0.0000000000        -0.0013334159       -0.0032358353       -0.0024748373
atom         2.1984300000        2.1984300000        2.1984300000 Si         0.0000000000         0.0000000000         0.0020812345        0.0026116271        0.0023118400
atom         1.0992100000        3.2976400000        5.4960700000 Si         0.0000000000         0.0000000000        -0.0022211712       -0.0021866562       -0.0026116271
atom         0.0000000000        0.0000000000        6.5952900000 Si         0.0000000000         0.0000000000         0.0007857078        0.0007626473        0.0030282904
atom         1.0992100000        1.0992100000        7.6945000000 Si         0.0000000000         0.0000000000        -0.0025901300       -0.0023364640       -0.0006473635
atom         0.0000000000        2.1984300000        4.3968600000 Si         0.0000000000         0.0000000000         0.0009471516        0.0026807988        0.0023480700
atom         3.2976400000        3.2976400000        7.6945000000 Si         0.0000000000         0.0000000000        -0.0030629470       -0.0026478571       -0.0013622415
atom         2.1984300000        0.0000000000        4.3968600000 Si         0.0000000000         0.0000000000         0.0024963144        0.0017773314        0.0033396736
atom         3.2976400000        1.0992100000        5.4960700000 Si         0.0000000000         0.0000000000        -0.0023019589       -0.0027515638       -0.0029344748
atom         2.1984300000        2.1984300000        6.5952900000 Si         0.0000000000         0.0000000000         0.0016892052        0.0028191721        0.0024748373
atom         1.0992100000        7.6945000000        1.0992100000 Si         0.0000000000         0.0000000000        -0.0017368897       -0.0011777561       -0.0019905558
atom         0.0000000000        4.3968600000        2.1984300000 Si         0.0000000000         0.0000000000         0.0009702122        0.0020482829        0.0022426484
atom         1.0992100000        5.4960700000        3.2976400000 Si         0.0000000000         0.0000000000        -0.0023364740       -0.0023810216       -0.0020944140
atom         0.0000000000        6.5952900000        0.0000000000 Si         0.0000000000         0.0000000000         0.0015236453        0.0013448704        0.0006934656
atom         3.2976400000        7.6945000000        3.2976400000 Si         0.0000000000         0.0000000000        -0.0024403122       -0.0006704251       -0.0029015232
atom         2.1984300000        4.3968600000        0.0000000000 Si         0.0000000000         0.0000000000         0.0015969530        0.0023250095        0.0008779700
atom         3.2976400000        5.4960700000        1.0992100000 Si         0.0000000000         0.0000000000        -0.0018407479       -0.0023579611       -0.0033511381
atom         2.1984300000        6.5952900000        2.1984300000 Si         0.0000000000         0.0000000000         0.0015047208        0.0032358353        0.0011126915
atom         1.0992100000        7.6945000000        5.4960700000 Si         0.0000000000         0.0000000000        -0.0029821593       -0.0007857278       -0.0005592284
atom         0.0000000000        4.3968600000        6.5952900000 Si         0.0000000000         0.0000000000         0.0008549085        0.0021635856        0.0018752530
atom         1.0992100000        5.4960700000        7.6945000000 Si         0.0000000000         0.0000000000        -0.0024517667       -0.0020120429        0.0004134207
atom         0.0000000000        6.5952900000        4.3968600000 Si         0.0000000000         0.0000000000         0.0004398186        0.0022672823        0.0026939782
atom         3.2976400000        7.6945000000        7.6945000000 Si         0.0000000000         0.0000000000        -0.0019099196       -0.0000938924       -0.0005320428
atom         2.1984300000        4.3968600000        4.3968600000 Si         0.0000000000         0.0000000000         0.0022426584        0.0024403222        0.0023942011
atom         3.2976400000        5.4960700000        5.4960700000 Si         0.0000000000         0.0000000000        -0.0015870819       -0.0030267170       -0.0026808088
atom         2.1984300000        6.5952900000        6.5952900000 Si         0.0000000000         0.0000000000         0.0019428712        0.0023825951        0.0019444447
atom         5.4960700000        3.2976400000        1.0992100000 Si         0.0000000000         0.0000000000        -0.0009512677       -0.0022558378       -0.0021519896
atom         4.3968600000        0.0000000000        2.1984300000 Si         0.0000000000         0.0000000000         0.0020482829        0.0011777571        0.0027038593
atom         5.4960700000        1.0992100000        3.2976400000 Si         0.0000000000         0.0000000000        -0.0024040822       -0.0029360482       -0.0023480800
atom         4.3968600000        2.1984300000        0.0000000000 Si         0.0000000000         0.0000000000         0.0026017360        0.0014124686       -0.0000675125
atom         7.6945000000        3.2976400000        3.2976400000 Si         0.0000000000         0.0000000000        -0.0008318489       -0.0026709177       -0.0024172516
atom         6.5952900000        0.0000000000        0.0000000000 Si         0.0000000000         0.0000000000         0.0029360482        0.0001861336        0.0014775242
atom         7.6945000000        1.0992100000        1.0992100000 Si         0.0000000000         0.0000000000        -0.0016159065       -0.0026823722       -0.0028899171
atom         6.5952900000        2.1984300000        2.1984300000 Si         0.0000000000         0.0000000000         0.0024287162        0.0030497775        0.0008590255
atom         5.4960700000        3.2976400000        5.4960700000 Si         0.0000000000         0.0000000000        -0.0029344748       -0.0021174745       -0.0019428712
atom         4.3968600000        0.0000000000        6.5952900000 Si         0.0000000000         0.0000000000         0.0019560407        0.0008087874        0.0027054327
atom         5.4960700000        1.0992100000        7.6945000000 Si         0.0000000000         0.0000000000        -0.0029575253       -0.0023595245       -0.0000477903
atom         4.3968600000        2.1984300000        4.3968600000 Si         0.0000000000         0.0000000000         0.0020021718        0.0030497775        0.0029937753
atom         7.6945000000        3.2976400000        7.6945000000 Si         0.0000000000         0.0000000000        -0.0017081307       -0.0023019489       -0.0008318299
atom         6.5952900000        0.0000000000        4.3968600000 Si         0.0000000000         0.0000000000         0.0035356125        0.0010163323        0.0029937653
atom         7.6945000000        1.0992100000        5.4960700000 Si         0.0000000000         0.0000000000        -0.0007165462       -0.0031666437       -0.0026346777
atom         6.5952900000        2.1984300000        6.5952900000 Si         0.0000000000         0.0000000000         0.0030744115        0.0027961115        0.0022672923
atom         5.4960700000        7.6945000000        1.0992100000 Si         0.0000000000         0.0000000000        -0.0017814374       -0.0009932727       -0.0012526182
atom         4.3968600000        4.3968600000        2.1984300000 Si         0.0000000000         0.0000000000         0.0021866562        0.0023711405        0.0025424455
atom         5.4960700000        5.4960700000        3.2976400000 Si         0.0000000000         0.0000000000        -0.0023118400       -0.0023349005       -0.0025786855
atom         4.3968600000        6.5952900000        0.0000000000 Si         0.0000000000         0.0000000000         0.0017484958        0.0024748273        0.0003706369
atom         7.6945000000        7.6945000000        3.2976400000 Si         0.0000000000         0.0000000000        -0.0011085565       -0.0003706189       -0.0027400993
atom         6.5952900000        4.3968600000        0.0000000000 Si         0.0000000000         0.0000000000         0.0024517667        0.0017715563        0.0009471506
atom         7.6945000000        5.4960700000        1.0992100000 Si         0.0000000000         0.0000000000         0.0000444519       -0.0025424355       -0.0023134034
atom         6.5952900000        6.5952900000        2.1984300000 Si         0.0000000000         0.0000000000         0.0021981107        0.0030744115        0.0019889923
atom         5.4960700000        7.6945000000        5.4960700000 Si         0.0000000000         0.0000000000        -0.0016430741       -0.0013622415       -0.0020120429
atom         4.3968600000        4.3968600000        6.5952900000 Si         0.0000000000         0.0000000000         0.0025095038        0.0024633827        0.0026362611
atom         5.4960700000        5.4960700000        7.6945000000 Si         0.0000000000         0.0000000000        -0.0023579511       -0.0023810116       -0.0011316360
atom         4.3968600000        6.5952900000        4.3968600000 Si         0.0000000000         0.0000000000         0.0028092910        0.0021750501        0.0025556249
atom         7.6945000000        7.6945000000        7.6945000000 Si         0.0000000000         0.0000000000        -0.0009471266       -0.0005550973       -0.0008318239
atom         6.5952900000        4.3968600000        4.3968600000 Si         0.0000000000         0.0000000000         0.0019905658        0.0028092910        0.0026478671
atom         7.6945000000        5.4960700000        5.4960700000 Si         0.0000000000         0.0000000000        -0.0016620286       -0.0022426484       -0.0029114042
atom         6.5952900000        6.5952900000        6.5952900000 Si         0.0000000000         0.0000000000         0.0024978978        0.0021750501        0.0015754759
energy    -13252.6921497253
charge 0
end
begin
comment generated by PY
lattice         8.8374644480         0.0000000000         0.0000000000
lattice         0.0000000000         8.8374644480         0.0000000000
lattice         0.0000000000         0.0000000000         8.8374644480
atom         1.1046800000        3.3140500000        1.1046800000 Si         0.0000000000         0.0000000000        -0.0026358538        0.0001384710       -0.0024974905
atom         0.0000000000        0.0000000000        2.2093700000 Si         0.0000000000         0.0000000000         0.0017020165        0.0010793817        0.0031148815
atom         1.1046800000        1.1046800000        3.3140500000 Si         0.0000000000         0.0000000000        -0.0047574243       -0.0042962133        0.0000692893
atom         0.0000000000        2.2093700000        0.0000000000 Si         0.0000000000         0.0000000000         0.0012177450        0.0014084010        0.0011946844
atom         3.3140500000        3.3140500000        3.3140500000 Si         0.0000000000         0.0000000000         0.0002307599       -0.0012681757        0.0001385177
atom         2.2093700000        0.0000000000        0.0000000000 Si         0.0000000000         0.0000000000         0.0030918210        0.0011485633        0.0008718367
atom         3.3140500000        1.1046800000        1.1046800000 Si         0.0000000000         0.0000000000         0.0004151975       -0.0017595530       -0.0036274574
atom         2.2093700000        2.2093700000        2.2093700000 Si         0.0000000000         0.0000000000         0.0032071337        0.0033685575        0.0016390164
atom         1.1046800000        3.3140500000        5.5234200000 Si         0.0000000000         0.0000000000        -0.0027280960        0.0003461094        0.0027762033
atom         0.0000000000        0.0000000000        6.6281000000 Si         0.0000000000         0.0000000000         0.0015636442        0.0010332516        0.0006994840
atom         1.1046800000        1.1046800000        7.7327800000 Si         0.0000000000         0.0000000000        -0.0029587115       -0.0023360767       -0.0002175970
atom         0.0000000000        2.2093700000        4.4187300000 Si         0.0000000000         0.0000000000         0.0002721875        0.0022385407       -0.0025566889
atom         3.3140500000        3.3140500000        7.7327800000 Si         0.0000000000         0.0000000000         0.0005074865       -0.0005763592       -0.0019471081
atom         2.2093700000        0.0000000000        4.4187300000 Si         0.0000000000         0.0000000000         0.0021232379        0.0010562461       -0.0035944136
atom         3.3140500000        1.1046800000        5.5234200000 Si         0.0000000000         0.0000000000         0.0006689571       -0.0016673108        0.0023841740
atom         2.2093700000        2.2093700000        6.6281000000 Si         0.0000000000         0.0000000000         0.0033454770        0.0042217778       -0.0003612622
atom         1.1046800000        7.7327800000        1.1046800000 Si         0.0000000000         0.0000000000        -0.0033507408       -0.0012322611       -0.0028664693
atom         0.0000000000        4.4187300000        2.2093700000 Si         0.0000000000         0.0000000000         0.0000646426       -0.0017495697        0.0028381149
atom         1.1046800000        5.5234200000        3.3140500000 Si         0.0000000000         0.0000000000        -0.0021285218        0.0022919318        0.0007842599
atom         0.0000000000        6.6281000000        0.0000000000 Si         0.0000000000         0.0000000000         0.0014714020       -0.0001998774        0.0020479157
atom         3.3140500000        7.7327800000        3.3140500000 Si         0.0000000000         0.0000000000         0.0005074865       -0.0013705944        0.0012684846
atom         2.2093700000        4.4187300000        0.0000000000 Si         0.0000000000         0.0000000000         0.0024922067       -0.0017956908        0.0000646426
atom         3.3140500000        5.5234200000        1.1046800000 Si         0.0000000000         0.0000000000         0.0011071075        0.0029376271       -0.0029356410
atom         2.2093700000        6.6281000000        2.2093700000 Si         0.0000000000         0.0000000000         0.0030918110        0.0006072808        0.0016851175
atom         1.1046800000        7.7327800000        5.5234200000 Si         0.0000000000         0.0000000000        -0.0028203082       -0.0012782822        0.0031220815
atom         0.0000000000        4.4187300000        6.6281000000 Si         0.0000000000         0.0000000000         0.0009410024       -0.0026259205        0.0003996668
atom         1.1046800000        5.5234200000        7.7327800000 Si         0.0000000000         0.0000000000        -0.0031892770        0.0026608705       -0.0006556474
atom         0.0000000000        6.6281000000        4.4187300000 Si         0.0000000000         0.0000000000         0.0007334575       -0.0018833274       -0.0017496197
atom         3.3140500000        7.7327800000        7.7327800000 Si         0.0000000000         0.0000000000         0.0002768718       -0.0014858971       -0.0007710201
atom         2.2093700000        4.4187300000        4.4187300000 Si         0.0000000000         0.0000000000         0.0026536805       -0.0016573875       -0.0022800223
atom         3.3140500000        5.5234200000        5.5234200000 Si         0.0000000000         0.0000000000         0.0005766214        0.0034218986        0.0018768419
atom         2.2093700000        6.6281000000        6.6281000000 Si         0.0000000000         0.0000000000         0.0022847218        0.0003074456       -0.0001537653
atom         5.5234200000        3.3140500000        1.1046800000 Si         0.0000000000         0.0000000000         0.0033296564        0.0005997755       -0.0030509437
atom         4.4187300000        0.0000000000        2.2093700000 Si         0.0000000000         0.0000000000        -0.0028103549        0.0016327598        0.0030917810
atom         5.5234200000        1.1046800000        3.3140500000 Si         0.0000000000         0.0000000000         0.0027531427       -0.0031662464       -0.0001151015
atom         4.4187300000        2.2093700000        0.0000000000 Si         0.0000000000         0.0000000000        -0.0027872944        0.0015236637        0.0012407305
atom         7.7327800000        3.3140500000        3.3140500000 Si         0.0000000000         0.0000000000        -0.0013244733       -0.0000920877        0.0003460627
atom         6.6281000000        0.0000000000        0.0000000000 Si         0.0000000000         0.0000000000        -0.0002229380        0.0012638571        0.0000647086
atom         7.7327800000        1.1046800000        1.1046800000 Si         0.0000000000         0.0000000000        -0.0007479896       -0.0024283189       -0.0021746529
atom         6.6281000000        2.2093700000        2.2093700000 Si         0.0000000000         0.0000000000         0.0008609468        0.0031148715        0.0017542992
atom         5.5234200000        3.3140500000        5.5234200000 Si         0.0000000000         0.0000000000         0.0031682326        0.0007149847        0.0026147795