begin
comment generated by PY
lattice        14.0929000000         0.0000000000         0.0000000000
lattice         0.0000000000        14.0929000000         0.0000000000
lattice         0.0000000000         0.0000000000        14.0929000000
atom         4.1534700000        5.2912200000       12.3894000000 Si         0.0000000000         0.0000000000        -9.3035103754        2.2425217729      -12.0880134869
atom         2.6410400000        7.7071400000        3.3050700000 Si         0.0000000000         0.0000000000         3.0190233821       11.8840910109      -14.7851917705
atom        12.5113100000        2.9675400000        8.4068200000 Si         0.0000000000         0.0000000000        47.2348882320       23.2512441905      -42.1322805166
atom        10.1616100000        2.8477300000        1.4116400000 Si         0.0000000000         0.0000000000        35.2956753898       16.1993449564       15.7569477662
atom         5.7440800000        1.7469600000       13.3775400000 Si         0.0000000000         0.0000000000       -17.5675209201      -40.9850087503       -1.4197834209
atom         4.3699900000        7.3381400000        5.9122600000 Si         0.0000000000         0.0000000000        -9.0076007771        6.6043329145       -2.1271785228
atom         4.4855600000       10.2822600000       12.6755100000 Si         0.0000000000         0.0000000000         8.1830097014      -34.6574173780       -3.3604644330
atom         9.2586800000       13.5295700000       10.3131200000 Si         0.0000000000         0.0000000000       -31.9534358799       12.2841726333       21.2753041037
atom        12.1650500000       12.5439000000       10.0131000000 Si         0.0000000000         0.0000000000         1.4282882068       15.1584196518      -26.1079892078
atom         7.5157100000       13.4709500000        8.0302900000 Si         0.0000000000         0.0000000000        47.3327252541       25.9167909718       15.8428529613
atom         2.7393900000        3.1207500000        3.6240000000 Si         0.0000000000         0.0000000000       -13.4619173123       -6.7250264609      -22.7790414627
atom         3.7053100000       10.2283100000        6.3438100000 Si         0.0000000000         0.0000000000        17.7862566679        5.0002658765        8.7939751202
atom         2.7750400000        4.6675300000        6.5160800000 Si         0.0000000000         0.0000000000        64.3083693954       -2.0818978450       11.0259927988
atom         6.9039300000        5.9646000000       13.3692300000 Si         0.0000000000         0.0000000000        17.3433654354       -2.7328741285        6.3282678488
atom         0.9149100000        9.0459100000        6.8998900000 Si         0.0000000000         0.0000000000       -21.8182529610        1.7306000258       39.8215275763
atom         9.3138200000        5.1380400000        7.7454100000 Si         0.0000000000         0.0000000000        -7.9735354547      -13.4810731494      -25.5250847675
atom        12.1936300000        2.7524800000       13.0775800000 Si         0.0000000000         0.0000000000        25.6684597878      -11.1787800312      -77.0920795470
atom         6.0059300000       12.7102900000       13.8838700000 Si         0.0000000000         0.0000000000        14.9634433305       13.3422476453       29.7837935905
atom         0.6340600000        0.9263200000        3.4150100000 Si         0.0000000000         0.0000000000       -13.7394249770       12.3788453704      -14.5177204271
atom         8.0001700000        0.9634800000        2.8283600000 Si         0.0000000000         0.0000000000       -66.5556780872        0.7474782882       -3.9603901312
atom         7.4535000000        9.2812900000        1.7371800000 Si         0.0000000000         0.0000000000        44.7054294848       23.9982163890        3.8733939202
atom         7.7424100000        3.5424300000       11.7534700000 Si         0.0000000000         0.0000000000       -26.0385413102       33.1368014754       -6.2013618576
atom         1.2727100000       13.3902800000        0.8453200000 Si         0.0000000000         0.0000000000        11.6335003378        9.3386138366        1.8887494203
atom         0.1526500000        0.7379300000        9.6245300000 Si         0.0000000000         0.0000000000       -19.9164449174       20.2788166658        6.9854880806
atom         9.6155400000       11.3884600000        6.8491000000 Si         0.0000000000         0.0000000000        -1.4862940370       -4.7390309782      -19.8470634955
atom        13.6167000000        5.0271200000       11.5993600000 Si         0.0000000000         0.0000000000       -23.0567743008       26.7264456350        3.1899275468
atom         5.4069900000       12.1779700000        4.5613400000 Si         0.0000000000         0.0000000000       -16.6908942040       12.2320689414      -10.1893491888
atom         5.6831600000        9.6693600000       10.0388400000 Si         0.0000000000         0.0000000000       -13.8024595932       -1.9437134085       14.1468251202
atom         1.7756900000        7.6445500000        9.4840500000 Si         0.0000000000         0.0000000000       -22.4190802764        6.4164225688      -29.9004088474
atom        12.8126700000       11.2610700000        7.3811600000 Si         0.0000000000         0.0000000000       -20.9716740786      -22.8627414359       -9.9949683962
atom         7.4492800000        7.1890700000        6.4288800000 Si         0.0000000000         0.0000000000        41.0773222304      -19.2705666192        6.1897398012
atom         7.8316500000        5.0905400000        2.0135500000 Si         0.0000000000         0.0000000000       -18.0268709612       32.1427004455      -10.2512214329
atom         8.8566900000        7.4435700000        3.7916200000 Si         0.0000000000         0.0000000000        -8.5395863574       40.3069064270      -20.7987942160
atom         6.5673300000        4.1822600000        9.0687100000 Si         0.0000000000         0.0000000000         9.3568336632      -39.9215266409       37.2739813317
atom         1.4643700000        6.4320500000       13.5019100000 Si         0.0000000000         0.0000000000         5.6982867778       -5.2982855089       -4.8917901731
atom         8.5352000000       11.6081600000       12.6182300000 Si         0.0000000000         0.0000000000       -14.2468684193       30.7407349792       -5.2743229342
atom        11.4945500000       11.1820000000       12.5849900000 Si         0.0000000000         0.0000000000       -23.7806965426      -11.2829287505       -3.3381138482
atom        13.8930200000       10.5991600000        0.2338200000 Si         0.0000000000         0.0000000000       -21.1740573743       10.8906632574       -0.7124370731
atom         8.2580300000        9.2414200000        8.5482000000 Si         0.0000000000         0.0000000000        -8.1083504885       -5.5936922488       -1.8161878292
atom        10.4432500000        2.2845300000       10.6583600000 Si         0.0000000000         0.0000000000        25.1428333827      -12.2981244231       42.9899823532
atom         4.7075200000        6.7048300000        9.7077500000 Si         0.0000000000         0.0000000000       -19.3160403182       45.1478178163       13.5521203503
atom        13.4800500000       12.3818600000        4.6611400000 Si         0.0000000000         0.0000000000        -4.7504171302       16.4710009469        8.3023368586
atom         3.0744700000        0.6531000000        9.0301400000 Si         0.0000000000         0.0000000000        -6.7007172450      -17.5993236847        9.9697157417
atom         3.2604500000        2.4360100000       11.7414400000 Si         0.0000000000         0.0000000000        48.7757550234       -4.0614935556        5.5357671788
atom         8.0819400000        8.5797300000       12.8630800000 Si         0.0000000000         0.0000000000        25.3273451723       -5.8293619723       28.9177290427
atom         0.5701300000        4.8714300000        8.9790100000 Si         0.0000000000         0.0000000000       -63.1281952392       45.2930902455       18.8614355197
atom        11.7876600000        4.1704700000        6.0387000000 Si         0.0000000000         0.0000000000       -11.5331660606      -28.6342795954       -5.1972949734
atom         1.7215900000        9.1914200000       12.3499200000 Si         0.0000000000         0.0000000000        -5.5837197053       -1.6023101630       17.1156108354
atom         0.1387400000        9.5418400000        3.1536600000 Si         0.0000000000         0.0000000000        10.2224696873      -29.8585686444        1.1611396021
atom        11.6009100000        8.4844300000        4.2965700000 Si         0.0000000000         0.0000000000        11.6470927958        7.9087712900       22.0732196581
atom        12.7037300000        3.4428600000        3.2187400000 Si         0.0000000000         0.0000000000       -33.5291728809      -10.9355510383       -5.9834780356
atom         7.9486600000       12.0601600000        2.7650400000 Si         0.0000000000         0.0000000000       -11.1610643828       -3.2900115031      -49.9234502412
atom         5.6052800000        2.9815600000        2.1451600000 Si         0.0000000000         0.0000000000        49.3019817296      -24.2393763590       -1.9372711172
atom         6.6558700000        0.7450500000        5.5907200000 Si         0.0000000000         0.0000000000         8.0233589497       -0.9268536014       56.5700058518
atom         4.6056600000       12.1331700000        8.6372700000 Si         0.0000000000         0.0000000000       -22.4477938887      -23.8701531463       18.4032717706
atom        10.5901200000       11.5786900000        4.0522900000 Si         0.0000000000         0.0000000000       -31.0590676951        0.1106674846       11.1866921107
atom         4.3805800000        9.1761300000        1.4449900000 Si         0.0000000000         0.0000000000        -8.0942163630      -14.3366390757      -25.2198932131
atom        11.7075000000        6.4602400000        9.4822100000 Si         0.0000000000         0.0000000000       -13.8292574194       46.1501963519       44.3532170257
atom        10.3128900000        8.6708400000       10.9909900000 Si         0.0000000000         0.0000000000        39.7633496080      -22.9670678989      -12.0302107783
atom         3.9766700000       12.1678500000        2.0055000000 Si         0.0000000000         0.0000000000        15.4155087763       26.9528431729        6.3240202786
atom         1.0483200000        5.2270400000        2.3254600000 Si         0.0000000000         0.0000000000         9.6065432501        7.9810684638        2.1853670686
atom         4.8792900000        2.4405800000        7.1963900000 Si         0.0000000000         0.0000000000         3.4994297130       36.2731328507       15.8972567559
atom        12.8456300000        7.1143500000        6.6173300000 Si         0.0000000000         0.0000000000       -16.0686355290        4.9715575345       10.7890851869
atom         0.7384700000        1.2915400000       12.7356200000 Si         0.0000000000         0.0000000000        16.2917940851      -31.7625004695      -21.9492862456
atom         0.2992200000        6.2710300000       12.3545500000 O         0.0000000000         0.0000000000        46.7960986233     -124.0030316128       42.0374065530
atom         6.1194300000        0.2030600000       13.6338700000 O         0.0000000000         0.0000000000       -59.1309408025       -9.6678321499        3.8605823567
atom         2.0403800000        3.9019600000        2.3356000000 O         0.0000000000         0.0000000000       -35.3490814842       59.8176546520      144.5532727135
atom        12.8953400000       13.9265300000        9.5328400000 O         0.0000000000         0.0000000000        73.1204252502      -56.6285330349       64.0577737070
atom         4.0411500000        3.8127700000        7.0464600000 O         0.0000000000         0.0000000000       -52.9357010696      -62.7086173804      -46.9554316530
atom         4.5505300000        9.2282100000       13.9254900000 O         0.0000000000         0.0000000000       -23.5773130597      118.9383172103       49.4651361600
atom        11.9303000000       12.5476200000        4.0742400000 O         0.0000000000         0.0000000000        16.7969370527     -126.3449422006       65.8023591402
atom        13.8076200000        2.1478900000        8.9365800000 O         0.0000000000         0.0000000000      -105.3857126691      -62.5310520377       20.0172615988
atom         3.7635000000       13.3057000000        9.4098000000 O         0.0000000000         0.0000000000        23.7657141895       31.6848358381     -137.5168886843
atom        12.8654800000       11.4214400000        9.0207100000 O         0.0000000000         0.0000000000       -80.6468575768      111.9926430289      -73.5084547520
atom         8.9095900000        9.9773300000        7.2453800000 O         0.0000000000         0.0000000000         5.2078715297       79.6356415488      108.0296144663
atom         7.9960600000       10.0979500000       12.2030800000 O         0.0000000000         0.0000000000        73.5628822746       -2.4012949906      114.0817587355
atom         1.5741300000        8.8047200000        8.3670700000 O         0.0000000000         0.0000000000       -54.0839201268     -109.1304800364      -42.8158133730
atom         4.3876300000        8.7705300000        6.7519500000 O         0.0000000000         0.0000000000       -81.4613689481        1.0246446682     -132.5302034104
atom         1.9049400000        8.0171500000       13.4880600000 O         0.0000000000         0.0000000000       -65.6180442257      -48.4895570833     -126.3700097279
atom         8.4736500000        8.6831000000        2.8275000000 O         0.0000000000         0.0000000000       -81.1839113237      -76.6409472899      -17.8108134355
atom         4.3000500000        2.8359500000        3.1398000000 O         0.0000000000         0.0000000000       -24.1907096046       55.4403297369      -59.1451700160
atom         8.7868100000       12.5158700000        7.6672000000 O         0.0000000000         0.0000000000       -48.0135342957      -26.5910378092      -54.3194432658
atom         1.7271100000        6.3482500000        3.3196000000 O         0.0000000000         0.0000000000        31.7102085317       29.4501632916     -112.1952765298
atom         1.4822200000        0.2983200000        8.7537900000 O         0.0000000000         0.0000000000        26.5784170667       88.6752141269      131.4396201470
atom         0.4352800000       10.0458000000       12.9120900000 O         0.0000000000         0.0000000000        73.0095778194      -31.8523963805       95.1110713635
atom        11.0571100000        2.6560900000        9.1491600000 O         0.0000000000         0.0000000000        91.8226816668       -4.1091246715       76.8652177581
atom         9.4572300000        7.9603900000       12.2106300000 O         0.0000000000         0.0000000000       -62.0083650529      149.8576730523      -63.2714267210
atom         9.5085000000       11.7649300000        5.2721400000 O         0.0000000000         0.0000000000       131.9155011754      -63.6499328621       47.6752759743
atom         9.6157100000       12.0357900000        2.8166800000 O         0.0000000000         0.0000000000       -67.8582673407      -58.2037605162      144.1679422996
atom         3.9150700000        3.9184500000       11.5370100000 O         0.0000000000         0.0000000000       -48.1947813173      -13.0135560686      121.8565222438
atom         2.9126700000       10.3288500000       12.2082100000 O         0.0000000000         0.0000000000        49.7163266109     -138.8813122335       70.4402201186
atom         4.5442600000        6.4502200000       11.3148500000 O         0.0000000000         0.0000000000       -24.5199885389     -105.3835602117      -61.4552602377
atom         1.6164300000        8.9610600000        3.5960100000 O         0.0000000000         0.0000000000       -53.3511341140      -75.3968294479      -86.1495655547
atom         5.9863200000        2.8399500000        8.3276300000 O         0.0000000000         0.0000000000       -60.5544245993      110.9259642763      -48.4763064448
atom         5.6490800000       13.5240500000        5.4852000000 O         0.0000000000         0.0000000000        89.1862693318       -8.7946311765      -92.1311187088
atom         5.6353000000        2.0441300000        5.7758600000 O         0.0000000000         0.0000000000        27.4587475388     -101.3918933400      138.0083398685
atom         6.9333600000       11.7482600000        4.0582300000 O         0.0000000000         0.0000000000       -59.9728910552       85.6184558233      -86.2248326496
atom         5.8927500000        6.7267700000        6.0907700000 O         0.0000000000         0.0000000000         2.1618254636      122.9722819882       13.4088216567
atom        13.0847100000        8.4285400000        3.5957300000 O         0.0000000000         0.0000000000       -43.1374464102      128.2765931022       32.2530382299
atom         7.8753000000        0.9233900000        4.4839600000 O         0.0000000000         0.0000000000      -120.7349352874      -22.5176810301      -56.9553990824
atom         5.6184400000        5.5527700000        8.9274400000 O         0.0000000000         0.0000000000        -0.8035261716      -18.2709260045      100.5334778706
atom         3.1220300000        1.7505900000       10.2504100000 O         0.0000000000         0.0000000000         3.9576128140      -47.5674311618       28.5347510752
atom        13.1039500000        4.5345200000        8.4646400000 O         0.0000000000         0.0000000000        90.5018315448     -116.7247436255       54.0913932526
atom         8.4368100000       12.5155100000       11.2756600000 O         0.0000000000         0.0000000000       109.7721458214       11.9815423858       46.4780318964
atom         8.0083200000        0.0333300000        9.4310300000 O         0.0000000000         0.0000000000        89.0449335030     -146.8784872349      -69.8647948194
atom         0.3270500000        7.6122800000        6.2690000000 O         0.0000000000         0.0000000000      -100.8971261196      101.8974670426      107.5063271977
atom        13.4716700000       12.3667400000        6.3295300000 O         0.0000000000         0.0000000000       -71.5244271678     -125.2536835863      -66.5177793891
atom         5.3389900000        8.1861000000        9.4943000000 O         0.0000000000         0.0000000000       -29.9708455921       -1.4640134961       83.8923806971
atom        10.7405100000        2.6559600000       13.9240700000 O         0.0000000000         0.0000000000        92.3173090124       28.8056116538       71.5459996582
atom         7.8951200000        4.9636600000       12.5406300000 O         0.0000000000         0.0000000000      -130.1223166145      -50.2597331882        9.3804760387
atom         0.0018000000       11.0176500000        3.9203000000 O         0.0000000000         0.0000000000       -52.9647141064      -15.0157658254       -2.3139291683
atom         3.9124700000        7.6774800000        4.3661800000 O         0.0000000000         0.0000000000       -94.6004519943      -32.7659038416       57.6887765577
atom         4.2297800000       12.6929000000        3.5252600000 O         0.0000000000         0.0000000000       107.6247805866     -124.1021454099      -63.9625870088
atom         6.3652800000        4.4197800000        2.3687700000 O         0.0000000000         0.0000000000        79.9060856819      -89.6316633108      -64.2772857439
atom        12.3485600000        5.4623900000       10.6569100000 O         0.0000000000         0.0000000000        84.6076702291       51.6508953894      -21.6947876294
atom         6.0837000000       12.6728900000        8.1429500000 O         0.0000000000         0.0000000000        -2.3796582830       29.5620700788       42.2179844494
atom        11.7535900000        8.1230400000        5.8905800000 O         0.0000000000         0.0000000000       110.3840547980      -73.4158642766      -99.8059539830
atom         1.5743200000        8.4510800000       10.8950600000 O         0.0000000000         0.0000000000        43.6081568863       -9.7016697279        6.5509743005
atom        10.0742800000       11.7548900000       13.1769700000 O         0.0000000000         0.0000000000       -15.4634206050      -83.1907478228     -130.5876830025
atom         3.4129500000        7.9269700000        1.8653400000 O         0.0000000000         0.0000000000        22.1190675688      120.2959659683      113.4955147120
atom         8.1363500000        7.9983100000        5.1772100000 O         0.0000000000         0.0000000000         0.5899830439     -160.0666497634       -8.9317758822
atom        12.3749700000        2.7964100000        6.7805800000 O         0.0000000000         0.0000000000       -47.9947991127      172.5948919029      107.5517528793
atom        10.3081200000        4.3217800000        6.7300400000 O         0.0000000000         0.0000000000        60.5074089553       72.4052257063       40.5034168093
atom         5.2910600000        2.6808600000        0.5613000000 O         0.0000000000         0.0000000000        81.8345984210      -69.2294594905       37.0719134216
atom         7.5049100000        7.9528900000        7.8773000000 O         0.0000000000         0.0000000000        80.3768076688       61.1084653474      -89.2421577646
atom        13.5939300000        2.1033200000        3.4696400000 O         0.0000000000         0.0000000000        25.2578545629       21.2820167565      -29.9009886088
atom         0.6204400000        0.4038100000        1.8558900000 O         0.0000000000         0.0000000000        79.2563269645      -69.1202322760       61.6831518746
atom        12.5089200000        7.1948100000        8.2224300000 O         0.0000000000         0.0000000000       -47.9897346475      -96.6513971182      -45.9346095403
atom         7.5543200000       12.2162700000       13.7509400000 O         0.0000000000         0.0000000000       -66.9442284861      -16.9494535351     -123.4915909643
atom         7.5211000000        6.1255900000        0.7854700000 O         0.0000000000         0.0000000000       -33.4908532162     -134.5064853838      -32.9698507019
atom         3.2590100000        6.2363500000        6.4283300000 O         0.0000000000         0.0000000000        68.2969250650      -54.2607073542      -46.4365408763
atom         8.4685700000        5.9296100000        6.5790500000 O         0.0000000000         0.0000000000       -24.9339086006       57.4092999453      121.6006498279
atom         5.3918200000       12.5181100000        1.2868500000 O         0.0000000000         0.0000000000       -89.9611229229      -24.7805529203      -87.7039149399
atom         0.3633700000       12.0392300000        0.7696500000 O         0.0000000000         0.0000000000        42.5722183361       -6.3914262921      -56.6311156004
atom         5.5086800000        9.5412100000       11.6504200000 O         0.0000000000         0.0000000000       -95.3128112232      104.0353504607      -68.9033966749
atom         1.8785700000        2.5059600000       12.6799600000 O         0.0000000000         0.0000000000        23.4173315608     -143.7511975238     -105.5329960075
atom        12.3032500000       10.7956700000       13.9557700000 O         0.0000000000         0.0000000000        88.5504543520       21.8781650545     -121.6948371257
atom         7.1277200000       10.0763100000        9.3933600000 O         0.0000000000         0.0000000000       -38.5424114316     -137.3908103093      -23.1462934113
atom         8.3041000000        5.9669200000        3.3193200000 O         0.0000000000         0.0000000000         8.9321252101       70.1894059994      -95.5101509940
atom        12.3784200000       12.2274800000       11.6318300000 O         0.0000000000         0.0000000000      -120.3335577660      -76.8594185877      -76.8548379494
atom         2.0959200000        9.8824900000        6.0819800000 O         0.0000000000         0.0000000000        41.9151357845      -55.2796433212      111.5036999096
atom         9.2356600000        3.2939600000       11.1140700000 O         0.0000000000         0.0000000000       -32.3469766118      -91.2968924945       18.6434851624
atom         7.5268000000       10.8941200000        1.7176200000 O         0.0000000000         0.0000000000        44.9632048290      -50.5256298032      127.3705330975
atom         8.1385700000        4.3789800000        8.6117700000 O         0.0000000000         0.0000000000       -46.1867481425       62.4348667862      -48.1724767898
atom        13.6039900000        9.8754700000        7.0460300000 O         0.0000000000         0.0000000000        68.5720905472       67.7784105018       21.0933320046
atom         6.8903900000        7.4478000000       12.6554400000 O         0.0000000000         0.0000000000       136.1465037513      -40.0017555300       98.9629532430
atom         0.6317500000        6.4774300000        9.3737700000 O         0.0000000000         0.0000000000       121.6595177743      -47.5130644244      -35.9108302809
atom        11.4914300000        7.7075500000       10.5055700000 O         0.0000000000         0.0000000000      -126.5430844492      -25.1709699638      -61.0797065312
atom         9.4144100000        1.5606300000        2.1850300000 O         0.0000000000         0.0000000000       -74.0444486068       70.5122078111      -14.0749138631
atom         0.3122000000       13.7160000000        4.3759300000 O         0.0000000000         0.0000000000       -72.6162594375       -3.1885394973      -82.0639499057
atom         5.8831000000        8.9061100000        2.0527200000 O         0.0000000000         0.0000000000         7.4780184481       69.2093497886     -104.2838371454
atom        10.2815900000        5.8142800000        8.9104600000 O         0.0000000000         0.0000000000        48.8155958628       -0.1825465004      -69.5931619500
atom         3.6090800000       10.5670200000        1.9007700000 O         0.0000000000         0.0000000000       132.9516325606       25.0805257276      -32.0995713513
atom        11.1087900000        9.9786300000       11.5552700000 O         0.0000000000         0.0000000000       -51.0059026600       -9.5665675000       52.9897211906
atom         9.0364100000        4.0558900000        1.5496100000 O         0.0000000000         0.0000000000        -7.0496359539      -21.1065275200       34.4900504150
atom         0.6248700000        4.2269500000       10.5519100000 O         0.0000000000         0.0000000000      -111.1245034091      138.6418151610      -58.1408431573
atom        10.5144200000        7.3570600000        3.7535600000 O         0.0000000000         0.0000000000       -63.3918031645      142.6898590332       66.1232809954
atom        12.6876000000        5.5623100000        6.0847000000 O         0.0000000000         0.0000000000       -82.8861167044       21.1446800146       52.0885941903
atom         0.0005500000        9.5640300000        1.4998000000 O         0.0000000000         0.0000000000        -7.2133742294      122.2144252889       38.8899184547
atom         9.4092600000        8.9254200000        9.6464700000 O         0.0000000000         0.0000000000       -34.2356329564        8.7767222690       23.8675254126
atom        11.2162300000       11.2623500000        7.0590300000 O         0.0000000000         0.0000000000        -1.2325744554       12.4737250480       16.0805807301
atom        12.9766600000        4.2019300000       12.8918500000 O         0.0000000000         0.0000000000       -16.7113832749      -71.8881425867     -119.6202347248
atom         3.8764300000        1.2265500000        7.6982900000 O         0.0000000000         0.0000000000        22.6531577713       71.2192447633       94.2682018856
atom        10.5497900000       12.6786500000        9.6962500000 O         0.0000000000         0.0000000000        37.6501236166       77.3470957540       98.5062316721
atom        11.7119800000        3.7647300000        4.4710900000 O         0.0000000000         0.0000000000       126.8295645337       13.4444979467       42.5807785673
atom         4.6798000000       10.9072100000        9.7131800000 O         0.0000000000         0.0000000000       110.6006100558       -1.9944665876      -88.3639241316
atom         6.7207600000        1.8761800000        2.5010000000 O         0.0000000000         0.0000000000        19.9483181909       20.5970362463       -7.0612620178
atom         1.5650200000        4.5361600000        7.6787100000 O         0.0000000000         0.0000000000        18.6614156837       47.8373054195       21.9277684868
atom         6.5628500000        3.7578700000       10.6435700000 O         0.0000000000         0.0000000000       142.3095763362       27.4550494282      -56.9359306561
atom         7.6797500000       13.5767500000        2.1917900000 O         0.0000000000         0.0000000000        70.0721774875       -1.7509042246      141.3247450410
atom         0.9168400000        5.9453400000        0.8650000000 O         0.0000000000         0.0000000000        77.2614890488      -28.8506755723        0.5490668372
atom        11.6384000000        3.1427200000        2.0329600000 O         0.0000000000         0.0000000000       -49.7862446665        3.6845976596       67.8966129049
atom         4.3773700000        1.5502900000       12.5164800000 O         0.0000000000         0.0000000000        30.8809633898      131.1994626490        3.8761819550