begin
comment generated by PY
lattice        13.9939000000         0.0000000000         0.0000000000
lattice         0.0000000000        13.9939000000         0.0000000000
lattice         0.0000000000         0.0000000000        13.9939000000
atom         9.3788200000       11.7667400000       11.9213800000 O         0.0000000000         0.0000000000        22.6611288641       55.0488410850       80.1948026805
atom         4.7983700000        9.5673900000        9.9293800000 O         0.0000000000         0.0000000000         1.4623659591       34.8077316094      -46.8920190347
atom        10.9511900000        5.7572900000        7.0300200000 O         0.0000000000         0.0000000000      -126.1759649763        6.6746281951       20.3088100468
atom         1.4014800000        4.2208300000       11.7085900000 O         0.0000000000         0.0000000000        43.2981053881      -23.8704380165       20.3918226816
atom         2.9437900000        0.9410800000        9.2833800000 O         0.0000000000         0.0000000000       118.6738998478     -116.7256340671      -16.6101627332
atom         0.5166100000        4.2665600000        6.2683700000 O         0.0000000000         0.0000000000       -51.1048834073       57.2985768480      117.7470171964
atom        10.6341400000       10.6491300000        3.2646100000 O         0.0000000000         0.0000000000        -2.0347315007      138.4979188081       95.7185614417
atom         1.4396200000        8.1855400000       13.1384600000 O         0.0000000000         0.0000000000       -29.1715474895       56.8972346690      -91.7770160491
atom         8.0344500000        2.4666500000        2.2142500000 O         0.0000000000         0.0000000000        35.6531839152      176.7945260560      -76.2174483650
atom         7.2253000000        0.3203000000        5.4349900000 O         0.0000000000         0.0000000000       -92.4957692074      -67.9074277697      -81.3446131970
atom         1.7501600000       13.3984400000        2.4495500000 O         0.0000000000         0.0000000000        94.4967972218      -15.6138090888      157.1521554278
atom         0.4628400000       10.6583200000       13.0888200000 O         0.0000000000         0.0000000000        95.1666914159       96.5551467880       80.1447046312
atom         9.0372000000        8.2901500000        9.8182500000 O         0.0000000000         0.0000000000       -78.8941717964       15.1517748229     -164.7657286308
atom         9.4497900000        2.0905600000        6.2465800000 O         0.0000000000         0.0000000000       132.6319846680       69.9416834520       28.0549464418
atom         7.3900300000        8.2591400000        0.3245200000 O         0.0000000000         0.0000000000       -53.3769875914       58.9559140681       42.6772475654
atom         5.0354700000       11.9098600000       13.9021200000 O         0.0000000000         0.0000000000        22.8230434756      -12.7206587451      -45.8152072207
atom         4.2251800000        8.1189200000        6.5801100000 O         0.0000000000         0.0000000000        -6.0247932667      163.2646891268      -49.2509033478
atom         6.0480500000        5.0607200000       13.0227600000 O         0.0000000000         0.0000000000        -6.4666604427     -142.9168913345       15.5750439885
atom         8.1506400000        0.2594300000        2.9394200000 O         0.0000000000         0.0000000000       -66.0176254044      -38.4178362007       21.7338082182
atom         2.1523800000        5.5069600000        4.6854200000 O         0.0000000000         0.0000000000       -63.9053865587       11.5698539553       49.7532248930
atom         5.7000300000        0.1670200000       12.4699400000 O         0.0000000000         0.0000000000        64.5338465984      -14.8389699974     -111.5686981335
atom         4.0262600000        2.9764900000        8.3157600000 O         0.0000000000         0.0000000000        -2.2431406052       -0.4280858166       59.6736478060
atom         7.5242900000       12.7239800000       13.1138100000 O         0.0000000000         0.0000000000       -56.1993337080       45.9917990132     -172.7091850778
atom        10.5692000000       12.1647800000        0.3960200000 O         0.0000000000         0.0000000000       132.6309570025       40.8085988728      -86.1499644862
atom         1.3032500000       12.7550400000       10.0685600000 O         0.0000000000         0.0000000000       -22.5668202880       66.1079362478      -39.2103507751
atom        13.9310400000        0.0088300000        4.2048200000 O         0.0000000000         0.0000000000       -37.8126374388       19.3761198408     -101.3425905100
atom        13.5365600000        2.5027200000        8.3080000000 O         0.0000000000         0.0000000000      -156.6973926592        2.4219123607      -78.2992010079
atom        11.7431400000       13.5421200000        2.4689400000 O         0.0000000000         0.0000000000        55.9499319144       -0.6404743785        3.6796809508
atom        11.7336800000       10.2696800000       12.5627800000 O         0.0000000000         0.0000000000       -96.9414981822      -37.5759037645      -93.1702298559
atom         2.8880600000        5.3887000000        7.2155200000 O         0.0000000000         0.0000000000       -87.0830125851      -59.7574185638       69.4825267504
atom         6.7828400000        8.4996800000        5.8624200000 O         0.0000000000         0.0000000000        -0.8247254258       80.2713818074       22.3498706880
atom         9.8879000000        7.7847600000        0.2198600000 O         0.0000000000         0.0000000000        13.0487081430      -86.5630350796      -60.0934784894
atom         4.9036600000        7.4557900000        4.1059100000 O         0.0000000000         0.0000000000        99.9654664560       22.2387124908       24.1197291346
atom        11.6269300000        7.5094100000       12.5079900000 O         0.0000000000         0.0000000000       101.7665912842      149.6985428380      -99.2373556122
atom        13.9696500000        9.0487700000       11.4077600000 O         0.0000000000         0.0000000000      -227.8493452986      -20.4053120267      -18.9163193308
atom        13.5897100000       13.2604500000       12.1240100000 O         0.0000000000         0.0000000000        99.4218381559     -130.2485940867      -55.6567655504
atom         0.5356500000        1.8591700000        2.5042200000 O         0.0000000000         0.0000000000        59.9266639029       45.9319116840        3.8961320922
atom         1.6417300000        7.2047100000        3.0215200000 O         0.0000000000         0.0000000000       -62.8940635678       16.7744555201      -66.5088559584
atom        11.3448900000        5.7847000000        2.7417100000 O         0.0000000000         0.0000000000       123.9992541797       40.4820539368      -32.4433834830
atom         6.3134700000        5.4615000000        3.8184300000 O         0.0000000000         0.0000000000        61.7398379791       36.8690874020      -67.6207865508
atom         1.8089000000       13.1458900000       13.5896900000 O         0.0000000000         0.0000000000      -105.9867042956       32.1382962055      -74.3479643412
atom         3.8126500000       10.6825600000        7.4076500000 O         0.0000000000         0.0000000000       -33.5422648637      -14.8603503336       -3.4964745830
atom         8.7860400000        5.9196700000        4.9770400000 O         0.0000000000         0.0000000000        -1.0672171600      -80.2028081797      126.6179289891
atom         5.6217900000        6.2214000000       11.1644100000 O         0.0000000000         0.0000000000       -60.2234401529       35.2168994536     -104.7327391196
atom         6.7322600000        2.4020000000       11.9592400000 O         0.0000000000         0.0000000000       -15.0774362536      161.9281432493      160.6483964624
atom        10.2773700000        3.9603100000        1.2383100000 O         0.0000000000         0.0000000000        -5.4735342623       47.8416264426       55.1861871994
atom        11.5041100000        0.9095100000        7.8251800000 O         0.0000000000         0.0000000000        24.8535958784      140.7056308982     -131.6053024650
atom         8.8181400000        9.4989700000        4.7573200000 O         0.0000000000         0.0000000000       -12.3385219758       23.6383030559       22.3739061006
atom        12.6957400000       11.8277400000       10.1308300000 O         0.0000000000         0.0000000000         6.1247068992      -46.4972818480      -73.9868874070
atom        12.5581700000        7.6166800000        7.7584100000 O         0.0000000000         0.0000000000       -25.3725244519     -221.4361725513     -117.4215890390
atom         4.7914000000        1.7363400000        4.9731800000 O         0.0000000000         0.0000000000        43.1585073703     -144.3754187896       10.0580539690
atom         3.4864600000        5.6604900000       12.3890100000 O         0.0000000000         0.0000000000        44.8635050316       21.3558589235     -124.7266253626
atom        12.5771100000       10.7605300000        7.9831200000 O         0.0000000000         0.0000000000        -5.8950971535      -12.5330138602     -232.3166249906
atom         3.7430000000        5.6316900000        2.8518300000 O         0.0000000000         0.0000000000        54.6938926222       83.9950554816       -3.4358977992
atom         5.8740200000       11.6081400000       11.3418600000 O         0.0000000000         0.0000000000        12.2686315482        2.9940350238      -28.2801712474
atom         7.7010500000       10.2626500000       10.0008500000 O         0.0000000000         0.0000000000      -142.8886385812       41.9079344131      -54.0774400856
atom        11.6319000000        9.1126500000        9.9215400000 O         0.0000000000         0.0000000000       144.7597607033      134.2596388864      123.0933735002
atom         5.2979900000        2.9856400000        0.1112400000 O         0.0000000000         0.0000000000        79.9790647478      -86.9020223285      -35.1825573491
atom         0.7519700000        9.6423300000        3.8900600000 O         0.0000000000         0.0000000000         5.8453504536      -18.1633214392      -53.6154636507
atom        10.4399500000        2.5003600000       12.5681200000 O         0.0000000000         0.0000000000       141.7444949891      -91.6167799770        7.3369759060
atom         3.1579100000       10.1028700000       13.8842000000 O         0.0000000000         0.0000000000       -67.3838148113      -10.5910451538      107.8221569456
atom         5.0893200000       10.0355500000        4.7982400000 O         0.0000000000         0.0000000000       121.8792574772        3.0228407020      122.5933067480
atom         2.6276900000        8.9786900000       11.1969800000 O         0.0000000000         0.0000000000      -107.3927241317     -113.6704353208     -130.9329770365
atom         6.7731700000       11.9645800000        3.7364900000 O         0.0000000000         0.0000000000        -1.6494912791      109.4498186704      230.2446019338
atom         0.8606100000        2.9797700000        0.3118700000 O         0.0000000000         0.0000000000       -54.5854736016       14.7453181699      -13.1746430194
atom         8.8114100000        9.7867100000        7.5437900000 O         0.0000000000         0.0000000000      -127.7170107032      -31.7936175721       15.6259998130
atom         6.2369400000        0.7013300000        1.0713100000 O         0.0000000000         0.0000000000         4.3328380296      147.9386481563        6.9342779829
atom         1.7046900000        9.4997700000        6.0709700000 O         0.0000000000         0.0000000000       127.6383031534       85.2476257154       32.4794074690
atom         5.7816700000       11.7269400000        8.5099500000 O         0.0000000000         0.0000000000       -91.6299401840      -64.2995250228       83.2367871185
atom        13.4075600000       12.6505000000        0.5932500000 O         0.0000000000         0.0000000000       -77.5732528408       51.3938825064     -111.9277244137
atom        11.0648700000        4.0249900000       10.7383900000 O         0.0000000000         0.0000000000       -20.7640876464       65.1475516290       57.6677588701
atom        13.0627300000        9.0202800000        5.8997400000 O         0.0000000000         0.0000000000       -46.7434023886       -0.3431868308       69.5799279116
atom         5.5946800000        6.9270500000        1.8608900000 O         0.0000000000         0.0000000000       185.2757514299      328.2040628922     -619.6855220541
atom         4.1194500000       13.3467700000        3.7711200000 O         0.0000000000         0.0000000000      -154.5175886845       99.0290735900      -46.2524992044
atom         3.5992500000        0.7380500000        0.1044100000 O         0.0000000000         0.0000000000        13.9384031867       67.8148396179      -79.7801476705
atom         8.1990800000        4.0666500000       13.9853300000 O         0.0000000000         0.0000000000      -116.0851034251      -97.0854150445       66.6974793973
atom         5.2570000000        9.5379700000        1.0464900000 O         0.0000000000         0.0000000000       -43.0236709498       77.3296782831      -48.5506067826
atom         8.5582500000        5.3378100000        2.2557000000 O         0.0000000000         0.0000000000       -70.5189830240     -204.9704340255       48.6003931228
atom         0.7853000000        9.4873300000        1.4248100000 O         0.0000000000         0.0000000000        81.6668110454     -160.1879319587      -24.6705180079
atom        11.7613400000        5.6232900000        0.1880900000 O         0.0000000000         0.0000000000      -122.6033330288       78.8847598896       34.2392035979
atom         5.6050300000        1.6103400000        9.8660100000 O         0.0000000000         0.0000000000       -25.9041889854      -51.6861535673       62.5893431321
atom        11.3921300000       10.9142700000        5.6857800000 O         0.0000000000         0.0000000000      -230.4387025855      165.3403436627     -170.8219129114
atom        13.9590100000       11.5038300000        5.6665800000 O         0.0000000000         0.0000000000       -12.1424730137     -159.3625460472      -21.5485463485
atom         4.2329900000        1.8594400000        2.2362300000 O         0.0000000000         0.0000000000        23.1488178690      -73.1126292834       10.5268039880
atom         6.8742800000        2.4266400000        6.6561100000 O         0.0000000000         0.0000000000        30.2169969913      -65.4935741211      -99.7145838261
atom        10.1160200000       10.8992100000        9.2067800000 O         0.0000000000         0.0000000000        61.3662046616     -114.4818984386       -3.3380010628
atom        11.1707500000        6.3798800000        9.7030500000 O         0.0000000000         0.0000000000       -32.2290825877     -129.7129657355      -83.6192301570
atom         1.4411500000        1.4339400000       12.1764900000 O         0.0000000000         0.0000000000         4.0589104886       47.0607993695       98.3716241832
atom         8.9106000000        1.3346600000        0.6449700000 O         0.0000000000         0.0000000000       129.1069419591      -48.4661892700     -131.6915279932
atom        11.9403700000        3.1807900000        6.0391700000 O         0.0000000000         0.0000000000        50.5604100734     -117.7534037197      163.3661876445
atom         3.0650800000       13.4575000000       11.5484300000 O         0.0000000000         0.0000000000       -50.3119689409       99.0942170541        8.0505726267
atom        11.7097700000        0.6613600000        0.1916600000 O         0.0000000000         0.0000000000      -160.9609853091      -48.1085802086      -39.6438262639
atom        13.0045900000        7.7053000000        2.7039000000 O         0.0000000000         0.0000000000       190.3843388326       94.5494488841       -5.3439580260
atom         4.9902300000        7.7208700000       13.3286900000 O         0.0000000000         0.0000000000       130.8886570487      -95.0877155893       66.0070600900
atom         2.3928000000        8.7063900000        8.4727300000 O         0.0000000000         0.0000000000       170.2548097559       47.9423726352      -39.8705056856
atom         3.6651900000       11.5438100000        1.9990400000 O         0.0000000000         0.0000000000       -46.5192570217       17.1978027550       -4.8757887864
atom        11.4418800000        1.6751100000       10.2308900000 O         0.0000000000         0.0000000000       164.1901753207       88.9276046586      -28.3942744625
atom         9.9472900000        0.0539600000       12.1838600000 O         0.0000000000         0.0000000000      -123.7716463228       41.0466784399      131.6318993771
atom         8.9103200000        8.7775400000        2.1547800000 O         0.0000000000         0.0000000000        69.3507254926      112.9494468559       -9.1606276591
atom         9.3208700000        9.9034800000       13.6303200000 O         0.0000000000         0.0000000000        35.9450569264       30.6046198157       33.0052653989
atom        13.3652500000        0.0224000000        9.2603200000 O         0.0000000000         0.0000000000       -72.3962729071       48.2278028145       87.0629176197
atom         3.6360100000       12.6982900000        8.7941900000 O         0.0000000000         0.0000000000       -15.7424768322        1.5150238488      -35.5004100593
atom         5.1854900000        5.1300100000        8.6570300000 O         0.0000000000         0.0000000000      -160.4083287439      151.5326730936      117.6653203860
atom         5.1342800000       12.4452300000        6.1669200000 O         0.0000000000         0.0000000000        -1.7999849764      -93.0288035087       35.9543547513
atom         4.0590300000        7.2468300000        9.5077900000 O         0.0000000000         0.0000000000        60.1021298494       49.0448994115       -3.5929743189
atom         8.6637300000        5.6260600000       10.0422800000 O         0.0000000000         0.0000000000       144.2394364508      121.2493539166      -54.4780531032
atom        10.0984800000        5.9140900000       12.0821700000 O         0.0000000000         0.0000000000        52.8115835962       61.8781857816       60.0771120138
atom         8.7222900000        7.0962300000        7.6098900000 O         0.0000000000         0.0000000000        93.8479347054     -167.3635959696      -90.8535742617
atom         8.7095600000        4.3316300000        7.0353400000 O         0.0000000000         0.0000000000       119.8058010536      313.3561868951       63.1313311870
atom         2.2176400000       11.6411400000        4.3784600000 O         0.0000000000         0.0000000000       -22.5460043588       -2.3539762544     -115.1116796017
atom         9.1292900000       12.5212200000        4.7653600000 O         0.0000000000         0.0000000000        56.8009718197       35.1854259522      -73.9348822621
atom        13.0404100000        4.1042300000        1.6468000000 O         0.0000000000         0.0000000000       -19.6999331513      -15.3625316081       18.7503900672
atom        12.5831100000        6.6731000000        5.0273000000 O         0.0000000000         0.0000000000        17.9143059752      109.7670363447      -14.5316292783
atom         8.1360000000        3.6335000000        4.3601200000 O         0.0000000000         0.0000000000        -3.5575909367       74.0229354620      128.3038519486
atom         7.0634400000       11.1616600000        6.2363600000 O         0.0000000000         0.0000000000       -32.3019522702     -158.1887238217     -137.2206230166
atom         1.0989300000        6.4811100000       10.9505300000 O         0.0000000000         0.0000000000       156.3173726461       72.0499053642       82.0615428995
atom        11.3415700000        0.7505200000        4.7967500000 O         0.0000000000         0.0000000000        84.2550151589        2.2308250773       80.9366950592
atom         1.4956600000        4.6031000000        2.2396900000 O         0.0000000000         0.0000000000       -13.4369633915      -14.4418080846       58.7811071919
atom        12.8741900000        4.8416300000        8.3071000000 O         0.0000000000         0.0000000000       -87.0642246750       22.0007005807     -160.9326470701
atom         2.8433400000        4.8040100000        9.8009000000 O         0.0000000000         0.0000000000       -70.0175730957       93.5670279523      203.9640062847
atom         0.7958300000        7.0152500000        6.6371600000 O         0.0000000000         0.0000000000       -85.6110658833     -135.9789727635      -93.9679822600
atom         6.8142700000        7.3851400000        8.8871100000 O         0.0000000000         0.0000000000       -15.2586944028     -140.2942241223       91.2716229369
atom         7.7171900000        0.1336000000       10.8647000000 O         0.0000000000         0.0000000000       -33.4854675119        7.2463587951      155.1928601863
atom         2.1856500000        1.4790600000        4.1406900000 O         0.0000000000         0.0000000000       143.6305383216     -150.6430256196      -61.7395527904
atom         5.1728700000        0.6552000000        7.4921900000 O         0.0000000000         0.0000000000       -14.3268029996      102.7181270784      -31.4636231813
atom        13.2218900000        3.0798100000       12.1207400000 O         0.0000000000         0.0000000000      -102.2854912866      -69.5169764560      -64.1201497568
atom        10.7588000000        8.1249400000        3.7170900000 O         0.0000000000         0.0000000000        64.8290387300       42.5371994986      -35.1653066646
atom        11.8080400000        6.0284600000        8.2014100000 Si         0.0000000000         0.0000000000        80.6862850833       84.9984008825       76.3093367891
atom        12.3360900000        9.0220600000       11.4229200000 Si         0.0000000000         0.0000000000       -55.4843823668       57.7627872333       31.7867988441
atom         6.4802600000        3.4784400000       13.2362900000 Si         0.0000000000         0.0000000000        -9.7965013512       77.9828477354       31.2708398541
atom         8.8184800000        9.8936500000        9.2016500000 Si         0.0000000000         0.0000000000       116.6894331968      -75.7472240164      -91.3202560214
atom         7.7766800000       13.2865400000        4.2858500000 Si         0.0000000000         0.0000000000        36.7221357474       -0.2392511140      -71.7407289185
atom         4.2730100000       10.9163100000        0.7270700000 Si         0.0000000000         0.0000000000       -15.4703352415      -69.6482589194      -38.2685423269
atom         1.3105500000        0.5329400000        3.3785400000 Si         0.0000000000         0.0000000000      -168.1587364367       97.1510737469      -41.0741075652
atom         4.4503800000        1.6084900000        8.7171300000 Si         0.0000000000         0.0000000000        -1.0315758570        3.3010132752       11.3238240668
atom         7.7892600000        9.5693500000        6.0908200000 Si         0.0000000000         0.0000000000       102.2913970037      125.8511852727      -18.2965861211
atom         9.8663700000        9.5325500000        3.4485000000 Si         0.0000000000         0.0000000000      -107.8295112940     -295.6335261666       62.1491113695
atom         5.9399100000       11.4835600000        5.2062400000 Si         0.0000000000         0.0000000000        34.7984622125      -54.1993262073       44.0821889350
atom         1.1669400000       10.7044000000        4.9122200000 Si         0.0000000000         0.0000000000       -52.7081196876     -104.9288601478       55.4373006618
atom         2.7026900000       13.3848600000        9.6852600000 Si         0.0000000000         0.0000000000       -25.1517407340      102.3036525901      128.3320055453
atom         5.2932200000        6.4734600000        2.8991800000 Si         0.0000000000         0.0000000000      -262.7422539930     -284.4357594546      781.4391186653
atom         2.9374100000        9.1915900000        7.0940500000 Si         0.0000000000         0.0000000000        20.2706081890       73.4265611142      -38.2795561453
atom        11.6327100000        4.8521500000        1.5023500000 Si         0.0000000000         0.0000000000       -10.5344806107        6.4014015622       -4.8154071116
atom         5.8808000000        8.3700800000        0.5293500000 Si         0.0000000000         0.0000000000       -16.0355295756     -134.8740719316      -49.0986127833
atom        12.0791900000        7.1100700000        3.5339000000 Si         0.0000000000         0.0000000000      -220.1278954558      -57.3168677430       66.7580008613
atom         5.3855200000        8.5417300000        5.4919200000 Si         0.0000000000         0.0000000000      -161.5178189840        9.9718186474     -117.5156684922
atom         5.3805900000        6.5019300000        9.5382300000 Si         0.0000000000         0.0000000000        48.0855531796      -40.4334857528       16.6777203268
atom         8.5937100000        3.2870600000        6.2939300000 Si         0.0000000000         0.0000000000      -172.6523972474     -352.7562793713     -238.2522456012
atom        12.1822200000       13.7438100000        3.9828500000 Si         0.0000000000         0.0000000000         4.0872055677       43.2109573860      -61.7057453956
atom         8.7773000000        8.7160200000        0.6679500000 Si         0.0000000000         0.0000000000       103.6130149871        3.2817957803      -40.5677751767
atom        11.8198800000       13.2711400000        0.7765800000 Si         0.0000000000         0.0000000000        28.2160354935      -56.4643762350       57.1126734459
atom         5.9422000000       10.6939700000        9.9881300000 Si         0.0000000000         0.0000000000         7.1459815886       77.6752265452        4.7856824553
atom         4.7938600000        1.6366100000        0.8323300000 Si         0.0000000000         0.0000000000        29.7935214165      -73.2703725553       60.5822849702
atom         2.3692300000        5.4441500000       11.2494200000 Si         0.0000000000         0.0000000000      -136.9710350164     -110.5036980313       43.9706848154
atom         1.5877700000        5.5117400000        6.2347300000 Si         0.0000000000         0.0000000000        33.1986005358       32.1451329425      -69.4034277452
atom         0.6016300000        2.7403000000       12.4124700000 Si         0.0000000000         0.0000000000       144.0669669813       82.0340318719       82.7701727464
atom        10.8325200000        6.8323900000       13.3827600000 Si         0.0000000000         0.0000000000       -69.0669524722     -107.8433167360       35.8786533739
atom         0.3712400000       12.4385000000       13.3267700000 Si         0.0000000000         0.0000000000       -30.6804487071        3.3554164404       10.3626526377
atom         2.8371600000       12.3550900000        3.0311600000 Si         0.0000000000         0.0000000000        54.7343402055       70.2257315998       60.3657577964
atom        11.8516900000       10.6763100000        9.1104900000 Si         0.0000000000         0.0000000000      -167.7484458174      -12.6322513705      261.4637576107
atom         1.6622600000        9.3347000000       13.9338000000 Si         0.0000000000         0.0000000000       -36.4499692637      204.2872084807       24.9997861582
atom         5.9779300000       12.7150600000       12.6752100000 Si         0.0000000000         0.0000000000        57.3958994147      -57.4481335097       15.5167821889
atom         0.5592800000        8.4920200000        2.6438500000 Si         0.0000000000         0.0000000000        29.0190644832       11.0483580349       82.0398315372
atom        13.1921700000        7.4418900000        6.2413300000 Si         0.0000000000         0.0000000000        33.9416057423      128.4540142931       52.6070741681
atom        13.7076000000       12.8985000000       10.3650900000 Si         0.0000000000         0.0000000000        28.8792118226       58.2729701653      -10.6785117309
atom        11.2445100000        1.7423400000        6.3818000000 Si         0.0000000000         0.0000000000       -72.3911405861       26.2500997198      -55.0762760393
atom         3.4528100000        8.6297200000        9.5457600000 Si         0.0000000000         0.0000000000        28.5297199879       22.4544122748      118.9876978360
atom         0.4970900000        3.3281100000        1.7820100000 Si         0.0000000000         0.0000000000        -3.0799872243       13.9111664295      -92.8512309585
atom        10.3219600000        1.2430400000       13.4306900000 Si         0.0000000000         0.0000000000       -12.5738148651      -66.7506294163      -57.1446413979
atom         8.5730200000       13.1801900000       11.9442200000 Si         0.0000000000         0.0000000000        45.0356119645        0.1390171484       69.7698458780
atom        12.4823900000       10.6515200000        6.3062200000 Si         0.0000000000         0.0000000000       413.7265095433     -171.0748617400      127.7796359608
atom         3.5219100000        4.7989000000        8.6610200000 Si         0.0000000000         0.0000000000       216.4209919265      -70.1920267439     -276.4304018636
atom         4.5242500000       12.1382500000        7.7091600000 Si         0.0000000000         0.0000000000        82.4961483203     -167.5094325973       -1.4444719073