begin
comment generated by PY
lattice        12.0000000000         0.0000000000         0.0000000000
lattice         0.0000000000        12.0000000000         0.0000000000
lattice         0.0000000000         0.0000000000        20.0000000000
atom         0.0000000000        0.0000000000        0.0000000000 C         0.0000000000         0.0000000000        -0.0000000000        0.0000000000   -13617.8304742290
atom         0.0000000000        0.0000000000        0.5000000000 C         0.0000000000         0.0000000000         0.0000000000       -0.0000000000    13617.8304742290
energy      2167.7433369656
charge 0
end
begin
comment generated by PY
lattice        12.0000000000         0.0000000000         0.0000000000
lattice         0.0000000000        12.0000000000         0.0000000000
lattice         0.0000000000         0.0000000000        20.0000000000
atom         0.0000000000        0.0000000000        0.0000000000 C         0.0000000000         0.0000000000        -0.0000230605       -0.0000000000    -9966.0994879227
atom         0.0000000000        0.0000000000        0.5600000000 C         0.0000000000         0.0000000000         0.0000230605        0.0000000000     9966.0994879227
energy      1467.8671889618
charge 0
end
begin
comment generated by PY
lattice        12.0000000000         0.0000000000         0.0000000000
lattice         0.0000000000        12.0000000000         0.0000000000
lattice         0.0000000000         0.0000000000        20.0000000000
atom         0.0000000000        0.0000000000        0.0000000000 C         0.0000000000         0.0000000000        -0.0000000000       -0.0000000000    -8133.7801701981
atom         0.0000000000        0.0000000000        0.6200000000 C         0.0000000000         0.0000000000         0.0000000000        0.0000000000     8133.7801701981
energy       971.2662823539
charge 0
end
begin
comment generated by PY
lattice        12.0000000000         0.0000000000         0.0000000000
lattice         0.0000000000        12.0000000000         0.0000000000
lattice         0.0000000000         0.0000000000        20.0000000000
atom         0.0000000000        0.0000000000        0.0000000000 C         0.0000000000         0.0000000000         0.0000000000       -0.0000000000    -5915.4901889983
atom         0.0000000000        0.0000000000        0.6800000000 C         0.0000000000         0.0000000000        -0.0000000000        0.0000000000     5915.4901889983
energy       552.2935263168
charge 0
end
begin
comment generated by PY
lattice        12.0000000000         0.0000000000         0.0000000000
lattice         0.0000000000        12.0000000000         0.0000000000
lattice         0.0000000000         0.0000000000        20.0000000000
atom         0.0000000000        0.0000000000        0.0000000000 C         0.0000000000         0.0000000000        -0.0000000000       -0.0000000000    -4207.4675073142
atom         0.0000000000        0.0000000000        0.7400000000 C         0.0000000000         0.0000000000         0.0000000000        0.0000000000     4207.4675073142
energy       250.8803725241
charge 0
end
begin
comment generated by PY
lattice        12.0000000000         0.0000000000         0.0000000000
lattice         0.0000000000        12.0000000000         0.0000000000
lattice         0.0000000000         0.0000000000        20.0000000000
atom         0.0000000000        0.0000000000        0.0000000000 C         0.0000000000         0.0000000000         0.0000000000        0.0000000000    -2905.9102424419
atom         0.0000000000        0.0000000000        0.8000000000 C         0.0000000000         0.0000000000        -0.0000000000       -0.0000000000     2905.9102424419
energy        39.2928927927
charge 0
end
begin
comment generated by PY
lattice        12.0000000000         0.0000000000         0.0000000000
lattice         0.0000000000        12.0000000000         0.0000000000
lattice         0.0000000000         0.0000000000        20.0000000000
atom         0.0000000000        0.0000000000        0.0000000000 C         0.0000000000         0.0000000000         0.0000000000       -0.0000000000    -1929.7840217517
atom         0.0000000000        0.0000000000        0.8600000000 C         0.0000000000         0.0000000000        -0.0000000000        0.0000000000     1929.7840217517
energy      -104.3267925971
charge 0
end
begin
comment generated by PY
lattice        12.0000000000         0.0000000000         0.0000000000
lattice         0.0000000000        12.0000000000         0.0000000000
lattice         0.0000000000         0.0000000000        20.0000000000
atom         0.0000000000        0.0000000000        0.0000000000 C         0.0000000000         0.0000000000        -0.0000461211       -0.0000000000    -1211.0100280422
atom         0.0000000000        0.0000000000        0.9200000000 C         0.0000000000         0.0000000000         0.0000461211        0.0000000000     1211.0100280422
energy      -197.4185244390
charge 0
end
begin
comment generated by PY
lattice        12.0000000000         0.0000000000         0.0000000000
lattice         0.0000000000        12.0000000000         0.0000000000
lattice         0.0000000000         0.0000000000        20.0000000000
atom         0.0000000000        0.0000000000        0.0000000000 C         0.0000000000         0.0000000000        -0.0000461211        0.0000230605     -690.1833338699
atom         0.0000000000        0.0000000000        0.9800000000 C         0.0000000000         0.0000000000         0.0000461211       -0.0000230605      690.1833338699
energy      -253.5956375872
charge 0
end
begin
comment generated by PY
lattice        12.0000000000         0.0000000000         0.0000000000
lattice         0.0000000000        12.0000000000         0.0000000000
lattice         0.0000000000         0.0000000000        20.0000000000
atom         0.0000000000        0.0000000000        0.0000000000 C         0.0000000000         0.0000000000        -0.0001153027        0.0001153027     -317.9651121234
atom         0.0000000000        0.0000000000        1.0400000000 C         0.0000000000         0.0000000000         0.0001153027       -0.0001153027      317.9651121234
energy      -283.2010829447
charge 0
end
begin
comment generated by PY
lattice        12.0000000000         0.0000000000         0.0000000000
lattice         0.0000000000        12.0000000000         0.0000000000
lattice         0.0000000000         0.0000000000        20.0000000000
atom         0.0000000000        0.0000000000        0.0000000000 C         0.0000000000         0.0000000000         0.0026750236       -0.0001153027      -57.1183870231
atom         0.0000000000        0.0000000000        1.1000000000 C         0.0000000000         0.0000000000        -0.0026750236        0.0001153027       57.1183870231
energy      -293.8947881286
charge 0
end
begin
comment generated by PY
lattice        12.0000000000         0.0000000000         0.0000000000
lattice         0.0000000000        12.0000000000         0.0000000000
lattice         0.0000000000         0.0000000000        20.0000000000
atom         0.0000000000        0.0000000000        0.0000000000 C         0.0000000000         0.0000000000         0.0000000000       -0.0000461211      -76.5904422827
atom         0.0000000000        0.0000000000        1.1600000000 C         0.0000000000         0.0000000000        -0.0000000000        0.0000461211       76.5904422827
energy      -294.9879947231
charge 0
end
begin
comment generated by PY
lattice        12.0000000000         0.0000000000         0.0000000000
lattice         0.0000000000        12.0000000000         0.0000000000
lattice         0.0000000000         0.0000000000        20.0000000000
atom         0.0000000000        0.0000000000        0.0000000000 C         0.0000000000         0.0000000000        -0.0000922422       -0.0001153027       36.0166588777
atom         0.0000000000        0.0000000000        1.2200000000 C         0.0000000000         0.0000000000         0.0000922422        0.0001153027      -36.0166588777
energy      -296.8462733423
charge 0
end
begin
comment generated by PY
lattice        12.0000000000         0.0000000000         0.0000000000
lattice         0.0000000000        12.0000000000         0.0000000000
lattice         0.0000000000         0.0000000000        20.0000000000
atom         0.0000000000        0.0000000000        0.0000000000 C         0.0000000000         0.0000000000         0.0000230605        0.0000230605      129.4465594700
atom         0.0000000000        0.0000000000        1.2800000000 C         0.0000000000         0.0000000000        -0.0000230605       -0.0000230605     -129.4465594700
energy      -291.6955473245
charge 0
end
begin
comment generated by PY
lattice        12.0000000000         0.0000000000         0.0000000000
lattice         0.0000000000        12.0000000000         0.0000000000
lattice         0.0000000000         0.0000000000        20.0000000000
atom         0.0000000000        0.0000000000        0.0000000000 C         0.0000000000         0.0000000000         0.0000000000        0.0000000000      190.0314171878
atom         0.0000000000        0.0000000000        1.3400000000 C         0.0000000000         0.0000000000        -0.0000000000       -0.0000000000     -190.0314171878
energy      -281.9711355835
charge 0
end
begin
comment generated by PY
lattice        12.0000000000         0.0000000000         0.0000000000
lattice         0.0000000000        12.0000000000         0.0000000000
lattice         0.0000000000         0.0000000000        20.0000000000
atom         0.0000000000        0.0000000000        0.0000000000 C         0.0000000000         0.0000000000        -0.0000000000       -0.0000000000      226.8152520814
atom         0.0000000000        0.0000000000        1.4000000000 C         0.0000000000         0.0000000000         0.0000000000        0.0000000000     -226.8152520814
energy      -269.3650114654
charge 0
end
begin
comment generated by PY
lattice        12.0000000000         0.0000000000         0.0000000000
lattice         0.0000000000        12.0000000000         0.0000000000
lattice         0.0000000000         0.0000000000        20.0000000000
atom         0.0000000000        0.0000000000        0.0000000000 C         0.0000000000         0.0000000000         0.0000000000       -0.0000000000      246.5237950114
atom         0.0000000000        0.0000000000        1.4600000000 C         0.0000000000         0.0000000000        -0.0000000000        0.0000000000     -246.5237950114
energy      -255.0928818904
charge 0
end
begin
comment generated by PY
lattice        12.0000000000         0.0000000000         0.0000000000
lattice         0.0000000000        12.0000000000         0.0000000000
lattice         0.0000000000         0.0000000000        20.0000000000
atom         0.0000000000        0.0000000000        0.0000000000 C         0.0000000000         0.0000000000         0.0000000000       -0.0000000000      254.0514237737
atom         0.0000000000        0.0000000000        1.5200000000 C         0.0000000000         0.0000000000        -0.0000000000        0.0000000000     -254.0514237737
energy      -240.0218133487
charge 0
end
begin
comment generated by PY
lattice        12.0000000000         0.0000000000         0.0000000000
lattice         0.0000000000        12.0000000000         0.0000000000
lattice         0.0000000000         0.0000000000        20.0000000000
atom         0.0000000000        0.0000000000        0.0000000000 C         0.0000000000         0.0000000000        -0.0000000000        0.0000230605      203.6075990423
atom         0.0000000000        0.0000000000        1.5800000000 C         0.0000000000         0.0000000000         0.0000000000       -0.0000230605     -203.6075990423
energy      -226.0518284652
charge 0
end
begin
comment generated by PY
lattice        12.0000000000         0.0000000000         0.0000000000
lattice         0.0000000000        12.0000000000         0.0000000000
lattice         0.0000000000         0.0000000000        20.0000000000
atom         0.0000000000        0.0000000000        0.0000000000 C         0.0000000000         0.0000000000         0.0000000000       -0.0000000000      199.8491990880
atom         0.0000000000        0.0000000000        1.6400000000 C         0.0000000000         0.0000000000        -0.0000000000        0.0000000000     -199.8491990880
energy      -214.3416393153
charge 0
end
begin
comment generated by PY
lattice        12.0000000000         0.0000000000         0.0000000000
lattice         0.0000000000        12.0000000000         0.0000000000
lattice         0.0000000000         0.0000000000        20.0000000000
atom         0.0000000000        0.0000000000        0.0000000000 C         0.0000000000         0.0000000000        -0.0000000000        0.0000000000      195.1262901311
atom         0.0000000000        0.0000000000        1.7000000000 C         0.0000000000         0.0000000000         0.0000000000       -0.0000000000     -195.1262901311
energy      -202.5916516039
charge 0
end
begin
comment generated by PY
lattice        12.0000000000         0.0000000000         0.0000000000
lattice         0.0000000000        12.0000000000         0.0000000000
lattice         0.0000000000         0.0000000000        20.0000000000
atom         0.0000000000        0.0000000000        0.0000000000 C         0.0000000000         0.0000000000        -0.0000000000       -0.0000000000      188.3517305481
atom         0.0000000000        0.0000000000        1.7600000000 C         0.0000000000         0.0000000000         0.0000000000        0.0000000000     -188.3517305481
energy      -191.1120193756
charge 0
end
begin
comment generated by PY
lattice        12.0000000000         0.0000000000         0.0000000000
lattice         0.0000000000        12.0000000000         0.0000000000
lattice         0.0000000000         0.0000000000        20.0000000000
atom         0.0000000000        0.0000000000        0.0000000000 C         0.0000000000         0.0000000000        -0.0000000000       -0.0000000000      180.1446607824
atom         0.0000000000        0.0000000000        1.8200000000 C         0.0000000000         0.0000000000         0.0000000000        0.0000000000     -180.1446607824
energy      -180.0622046748
charge 0
end
begin
comment generated by PY
lattice        12.0000000000         0.0000000000         0.0000000000
lattice         0.0000000000        12.0000000000         0.0000000000
lattice         0.0000000000         0.0000000000        20.0000000000
atom         0.0000000000        0.0000000000        0.0000000000 C         0.0000000000         0.0000000000         0.0000000000        0.0000000000      171.1372651760
atom         0.0000000000        0.0000000000        1.8800000000 C         0.0000000000         0.0000000000        -0.0000000000       -0.0000000000     -171.1372651760
energy      -169.5245313003
charge 0
end
begin
comment generated by PY
lattice        12.0000000000         0.0000000000         0.0000000000
lattice         0.0000000000        12.0000000000         0.0000000000
lattice         0.0000000000         0.0000000000        20.0000000000
atom         0.0000000000        0.0000000000        0.0000000000 C         0.0000000000         0.0000000000        -0.0000000000       -0.0000000000      161.7858205316
atom         0.0000000000        0.0000000000        1.9400000000 C         0.0000000000         0.0000000000         0.0000000000        0.0000000000     -161.7858205316
energy      -159.5372624636
charge 0
end
begin
comment generated by PY
lattice        12.0000000000         0.0000000000         0.0000000000
lattice         0.0000000000        12.0000000000         0.0000000000
lattice         0.0000000000         0.0000000000        20.0000000000
atom         0.0000000000        0.0000000000        0.0000000000 C         0.0000000000         0.0000000000         0.0000000000       -0.0000000000      152.3882971532
atom         0.0000000000        0.0000000000        2.0000000000 C         0.0000000000         0.0000000000        -0.0000000000        0.0000000000     -152.3882971532
energy      -150.1129041011
charge 0
end
begin
comment generated by PY
lattice        12.0000000000         0.0000000000         0.0000000000
lattice         0.0000000000        12.0000000000         0.0000000000
lattice         0.0000000000         0.0000000000        20.0000000000
atom         0.0000000000        0.0000000000        0.0000000000 C         0.0000000000         0.0000000000         0.0000000000       -0.0000000000      143.1359750458
atom         0.0000000000        0.0000000000        2.0600000000 C         0.0000000000         0.0000000000        -0.0000000000        0.0000000000     -143.1359750458
energy      -141.2484733920
charge 0
end
begin
comment generated by PY
lattice        12.0000000000         0.0000000000         0.0000000000
lattice         0.0000000000        12.0000000000         0.0000000000
lattice         0.0000000000         0.0000000000        20.0000000000
atom         0.0000000000        0.0000000000        0.0000000000 C         0.0000000000         0.0000000000         0.0000000000       -0.0000000000      134.1488867003
atom         0.0000000000        0.0000000000        2.1200000000 C         0.0000000000         0.0000000000        -0.0000000000        0.0000000000     -134.1488867003
energy      -132.9303158980
charge 0
end
begin
comment generated by PY
lattice        12.0000000000         0.0000000000         0.0000000000
lattice         0.0000000000        12.0000000000         0.0000000000
lattice         0.0000000000         0.0000000000        20.0000000000
atom         0.0000000000        0.0000000000        0.0000000000 C         0.0000000000         0.0000000000        -0.0000000000        0.0000000000      125.4864161239
atom         0.0000000000        0.0000000000        2.1800000000 C         0.0000000000         0.0000000000         0.0000000000       -0.0000000000     -125.4864161239
energy      -125.1353686404
charge 0
end
begin
comment generated by PY
lattice        12.0000000000         0.0000000000         0.0000000000
lattice         0.0000000000        12.0000000000         0.0000000000
lattice         0.0000000000         0.0000000000        20.0000000000
atom         0.0000000000        0.0000000000        0.0000000000 C         0.0000000000         0.0000000000         0.0000000000       -0.0000000000      117.1048202455
atom         0.0000000000        0.0000000000        2.2400000000 C         0.0000000000         0.0000000000        -0.0000000000        0.0000000000     -117.1048202455
energy      -117.8280300541
charge 0
end
begin
comment generated by PY
lattice        12.0000000000         0.0000000000         0.0000000000
lattice         0.0000000000        12.0000000000         0.0000000000
lattice         0.0000000000         0.0000000000        20.0000000000
atom         0.0000000000        0.0000000000        0.0000000000 C         0.0000000000         0.0000000000        -0.0000000000       -0.0000000000      108.7570224390
atom         0.0000000000        0.0000000000        2.3000000000 C         0.0000000000         0.0000000000         0.0000000000        0.0000000000     -108.7570224390
energy      -110.9557478606
charge 0
end
begin
comment generated by PY
lattice        12.0000000000         0.0000000000         0.0000000000
lattice         0.0000000000        12.0000000000         0.0000000000
lattice         0.0000000000         0.0000000000        20.0000000000
atom         0.0000000000        0.0000000000        0.0000000000 C         0.0000000000         0.0000000000         0.0000922422       -0.0000461211       99.6259873210
atom         0.0000000000        0.0000000000        2.3600000000 C         0.0000000000         0.0000000000        -0.0000922422        0.0000461211      -99.6259873210
energy      -104.4375983779
charge 0
end
begin
comment generated by PY
lattice        12.0000000000         0.0000000000         0.0000000000
lattice         0.0000000000        12.0000000000         0.0000000000
lattice         0.0000000000         0.0000000000        20.0000000000
atom         0.0000000000        0.0000000000        0.0000000000 C         0.0000000000         0.0000000000        -0.0000000000        0.0000000000       54.2025267933
atom         0.0000000000        0.0000000000        2.4200000000 C         0.0000000000         0.0000000000         0.0000000000       -0.0000000000      -54.2025267933
energy      -100.5269917155
charge 0
end
begin
comment generated by PY
lattice        12.0000000000         0.0000000000         0.0000000000
lattice         0.0000000000        12.0000000000         0.0000000000
lattice         0.0000000000         0.0000000000        20.0000000000
atom         0.0000000000        0.0000000000        0.0000000000 C         0.0000000000         0.0000000000        -0.0000000000       -0.0000000000       50.1311109404
atom         0.0000000000        0.0000000000        2.4800000000 C         0.0000000000         0.0000000000         0.0000000000        0.0000000000      -50.1311109404
energy       -97.3984226823
charge 0
end
begin
comment generated by PY
lattice        12.0000000000         0.0000000000         0.0000000000
lattice         0.0000000000        12.0000000000         0.0000000000
lattice         0.0000000000         0.0000000000        20.0000000000
atom         0.0000000000        0.0000000000        0.0000000000 C         0.0000000000         0.0000000000         0.0019601466        0.0126602409       69.2912447709
atom         0.0000000000        0.0000000000        2.5400000000 C         0.0000000000         0.0000000000        -0.0019601466       -0.0126602409      -69.2912447709
energy       -88.7500489508
charge 0
end
begin
comment generated by PY
lattice        12.0000000000         0.0000000000         0.0000000000
lattice         0.0000000000        12.0000000000         0.0000000000
lattice         0.0000000000         0.0000000000        20.0000000000
atom         0.0000000000        0.0000000000        0.0000000000 C         0.0000000000         0.0000000000        -0.0000000000       -0.0000000000       42.7870686334
atom         0.0000000000        0.0000000000        2.6000000000 C         0.0000000000         0.0000000000         0.0000000000        0.0000000000      -42.7870686334
energy       -91.8337012248
charge 0
end
begin
comment generated by PY
lattice        12.0000000000         0.0000000000         0.0000000000
lattice         0.0000000000        12.0000000000         0.0000000000
lattice         0.0000000000         0.0000000000        20.0000000000
atom         0.0000000000        0.0000000000        0.0000000000 C         0.0000000000         0.0000000000        -0.0000000000       -0.0000000000       39.4993597088
atom         0.0000000000        0.0000000000        2.6600000000 C         0.0000000000         0.0000000000         0.0000000000        0.0000000000      -39.4993597088
energy       -89.3649575420
charge 0
end
begin
comment generated by PY
lattice        12.0000000000         0.0000000000         0.0000000000
lattice         0.0000000000        12.0000000000         0.0000000000
lattice         0.0000000000         0.0000000000        20.0000000000
atom         0.0000000000        0.0000000000        0.0000000000 C         0.0000000000         0.0000000000        -0.0000000000       -0.0000000000       36.4707134248
atom         0.0000000000        0.0000000000        2.7200000000 C         0.0000000000         0.0000000000         0.0000000000        0.0000000000      -36.4707134248
energy       -87.0881514817
charge 0
end
begin
comment generated by PY
lattice        12.0000000000         0.0000000000         0.0000000000
lattice         0.0000000000        12.0000000000         0.0000000000
lattice         0.0000000000         0.0000000000        20.0000000000
atom         0.0000000000        0.0000000000        0.0000000000 C         0.0000000000         0.0000000000        -0.0000000000        0.0000000000       33.7020495773
atom         0.0000000000        0.0000000000        2.7800000000 C         0.0000000000         0.0000000000         0.0000000000       -0.0000000000      -33.7020495773
energy       -84.9829071184
charge 0
end
begin
comment generated by PY
lattice        12.0000000000         0.0000000000         0.0000000000
lattice         0.0000000000        12.0000000000         0.0000000000
lattice         0.0000000000         0.0000000000        20.0000000000
atom         0.0000000000        0.0000000000        0.0000000000 C         0.0000000000         0.0000000000         0.0000000000       -0.0000000000       31.1892365577
atom         0.0000000000        0.0000000000        2.8400000000 C         0.0000000000         0.0000000000        -0.0000000000        0.0000000000      -31.1892365577
energy       -83.0333009030
charge 0
end
begin
comment generated by PY
lattice        12.0000000000         0.0000000000         0.0000000000
lattice         0.0000000000        12.0000000000         0.0000000000
lattice         0.0000000000         0.0000000000        20.0000000000
atom         0.0000000000        0.0000000000        0.0000000000 C         0.0000000000         0.0000000000        -0.0000000000        0.0000000000       28.9085460550
atom         0.0000000000        0.0000000000        2.9000000000 C         0.0000000000         0.0000000000         0.0000000000       -0.0000000000      -28.9085460550
energy       -81.2214917192
charge 0
end
begin
comment generated by PY
lattice        12.0000000000         0.0000000000         0.0000000000
lattice         0.0000000000        12.0000000000         0.0000000000
lattice         0.0000000000         0.0000000000        20.0000000000
atom         0.0000000000        0.0000000000        0.0000000000 C         0.0000000000         0.0000000000         0.0000000000       -0.0000000000       26.8162338742
atom         0.0000000000        0.0000000000        2.9600000000 C         0.0000000000         0.0000000000        -0.0000000000        0.0000000000      -26.8162338742
energy       -79.5316851592
charge 0
end
begin
comment generated by PY
lattice        12.0000000000         0.0000000000         0.0000000000
lattice         0.0000000000        12.0000000000         0.0000000000
lattice         0.0000000000         0.0000000000        20.0000000000
atom         0.0000000000        0.0000000000        0.0000000000 C         0.0000000000         0.0000000000        -0.0000000000       -0.0000000000       24.8595273629
atom         0.0000000000        0.0000000000        3.0200000000 C         0.0000000000         0.0000000000         0.0000000000        0.0000000000      -24.8595273629
energy       -77.9511736863
charge 0
end
begin
comment generated by PY
lattice        12.0000000000         0.0000000000         0.0000000000
lattice         0.0000000000        12.0000000000         0.0000000000
lattice         0.0000000000         0.0000000000        20.0000000000
atom         0.0000000000        0.0000000000        0.0000000000 C         0.0000000000         0.0000000000         0.0000000000       -0.0000000000       22.9973105099
atom         0.0000000000        0.0000000000        3.0800000000 C         0.0000000000         0.0000000000        -0.0000000000        0.0000000000      -22.9973105099
energy       -76.4730536563
charge 0
end
begin
comment generated by PY
lattice        12.0000000000         0.0000000000         0.0000000000
lattice         0.0000000000        12.0000000000         0.0000000000
lattice         0.0000000000         0.0000000000        20.0000000000
atom         0.0000000000        0.0000000000        0.0000000000 C         0.0000000000         0.0000000000         0.0000000000        0.0000000000       21.2116556426
atom         0.0000000000        0.0000000000        3.1400000000 C         0.0000000000         0.0000000000        -0.0000000000       -0.0000000000      -21.2116556426
energy       -75.0940645126
charge 0
end
begin
comment generated by PY
lattice        12.0000000000         0.0000000000         0.0000000000
lattice         0.0000000000        12.0000000000         0.0000000000
lattice         0.0000000000         0.0000000000        20.0000000000
atom         0.0000000000        0.0000000000        0.0000000000 C         0.0000000000         0.0000000000        -0.0000000000       -0.0000000000       19.5047117988
atom         0.0000000000        0.0000000000        3.2000000000 C         0.0000000000         0.0000000000         0.0000000000        0.0000000000      -19.5047117988
energy       -73.8130630295
charge 0
end
begin
comment generated by PY
lattice        12.0000000000         0.0000000000         0.0000000000
lattice         0.0000000000        12.0000000000         0.0000000000
lattice         0.0000000000         0.0000000000        20.0000000000
atom         0.0000000000        0.0000000000        0.0000000000 C         0.0000000000         0.0000000000         0.0000000000       -0.0000000000       17.8879268132
atom         0.0000000000        0.0000000000        3.2600000000 C         0.0000000000         0.0000000000        -0.0000000000        0.0000000000      -17.8879268132
energy       -72.6285674257
charge 0
end
begin
comment generated by PY
lattice        12.0000000000         0.0000000000         0.0000000000
lattice         0.0000000000        12.0000000000         0.0000000000
lattice         0.0000000000         0.0000000000        20.0000000000
atom         0.0000000000        0.0000000000        0.0000000000 C         0.0000000000         0.0000000000        -0.0000000000        0.0000000000       16.3718749797