begin
comment generated by PY
lattice        12.0000000000         0.0000000000         0.0000000000
lattice         0.0000000000        12.0000000000         0.0000000000
lattice         0.0000000000         0.0000000000        20.0000000000
atom         0.0000000000        0.0000000000        0.0000000000 H         0.0000000000         0.0000000000       -10.2789625498       26.0339058911   -12842.2305206399
atom         0.0000000000        0.0000000000        0.3000000000 C         0.0000000000         0.0000000000        10.2789625498      -26.0339058911    12842.2305206399
energy      1936.4700368148
charge 0
end
begin
comment generated by PY
lattice        12.0000000000         0.0000000000         0.0000000000
lattice         0.0000000000        12.0000000000         0.0000000000
lattice         0.0000000000         0.0000000000        20.0000000000
atom         0.0000000000        0.0000000000        0.0000000000 H         0.0000000000         0.0000000000         0.0065722562        0.0184945595    -8354.8575392878
atom         0.0000000000        0.0000000000        0.3600000000 C         0.0000000000         0.0000000000        -0.0065722562       -0.0184945595     8354.8575392878
energy      1295.3232892322
charge 0
end
begin
comment generated by PY
lattice        12.0000000000         0.0000000000         0.0000000000
lattice         0.0000000000        12.0000000000         0.0000000000
lattice         0.0000000000         0.0000000000        20.0000000000
atom         0.0000000000        0.0000000000        0.0000000000 H         0.0000000000         0.0000000000         0.0276265365        0.0322155856    -5563.9092541960
atom         0.0000000000        0.0000000000        0.4200000000 C         0.0000000000         0.0000000000        -0.0276265365       -0.0322155856     5563.9092541960
energy       884.0964214744
charge 0
end
begin
comment generated by PY
lattice        12.0000000000         0.0000000000         0.0000000000
lattice         0.0000000000        12.0000000000         0.0000000000
lattice         0.0000000000         0.0000000000        20.0000000000
atom         0.0000000000        0.0000000000        0.0000000000 H         0.0000000000         0.0000000000         1.3233295477       -1.4343660864    -3678.6433296803
atom         0.0000000000        0.0000000000        0.4800000000 C         0.0000000000         0.0000000000        -1.3233295477        1.4343660864     3678.6433296803
energy       642.0406036535
charge 0
end
begin
comment generated by PY
lattice        12.0000000000         0.0000000000         0.0000000000
lattice         0.0000000000        12.0000000000         0.0000000000
lattice         0.0000000000         0.0000000000        20.0000000000
atom         0.0000000000        0.0000000000        0.0000000000 H         0.0000000000         0.0000000000        -0.0000000000        0.0000000000    -2398.2172201120
atom         0.0000000000        0.0000000000        0.5400000000 C         0.0000000000         0.0000000000         0.0000000000       -0.0000000000     2398.2172201120
energy       116.5415735518
charge 0
end
begin
comment generated by PY
lattice        12.0000000000         0.0000000000         0.0000000000
lattice         0.0000000000        12.0000000000         0.0000000000
lattice         0.0000000000         0.0000000000        20.0000000000
atom         0.0000000000        0.0000000000        0.0000000000 H         0.0000000000         0.0000000000         0.0000230605       -0.0000230605    -1592.2320069171
atom         0.0000000000        0.0000000000        0.6000000000 C         0.0000000000         0.0000000000        -0.0000230605        0.0000230605     1592.2320069171
energy         3.9785473874
charge 0
end
begin
comment generated by PY
lattice        12.0000000000         0.0000000000         0.0000000000
lattice         0.0000000000        12.0000000000         0.0000000000
lattice         0.0000000000         0.0000000000        20.0000000000
atom         0.0000000000        0.0000000000        0.0000000000 H         0.0000000000         0.0000000000        -0.0000000000       -0.0000000000    -1008.7387626661
atom         0.0000000000        0.0000000000        0.6600000000 C         0.0000000000         0.0000000000         0.0000000000        0.0000000000     1008.7387626661
energy       -72.8672341080
charge 0
end
begin
comment generated by PY
lattice        12.0000000000         0.0000000000         0.0000000000
lattice         0.0000000000        12.0000000000         0.0000000000
lattice         0.0000000000         0.0000000000        20.0000000000
atom         0.0000000000        0.0000000000        0.0000000000 H         0.0000000000         0.0000000000         0.0000000000       -0.0000000000     -621.5050728671
atom         0.0000000000        0.0000000000        0.7200000000 C         0.0000000000         0.0000000000        -0.0000000000        0.0000000000      621.5050728671
energy      -120.9848742477
charge 0
end
begin
comment generated by PY
lattice        12.0000000000         0.0000000000         0.0000000000
lattice         0.0000000000        12.0000000000         0.0000000000
lattice         0.0000000000         0.0000000000        20.0000000000
atom         0.0000000000        0.0000000000        0.0000000000 H         0.0000000000         0.0000000000         0.0000000000       -0.0000000000     -364.5555533578
atom         0.0000000000        0.0000000000        0.7800000000 C         0.0000000000         0.0000000000        -0.0000000000        0.0000000000      364.5555533578
energy      -150.0448079140
charge 0
end
begin
comment generated by PY
lattice        12.0000000000         0.0000000000         0.0000000000
lattice         0.0000000000        12.0000000000         0.0000000000
lattice         0.0000000000         0.0000000000        20.0000000000
atom         0.0000000000        0.0000000000        0.0000000000 H         0.0000000000         0.0000000000        -0.0000000000        0.0000000000     -193.7965667035
atom         0.0000000000        0.0000000000        0.8400000000 C         0.0000000000         0.0000000000         0.0000000000       -0.0000000000      193.7965667035
energy      -166.4493071917
charge 0
end
begin
comment generated by PY
lattice        12.0000000000         0.0000000000         0.0000000000
lattice         0.0000000000        12.0000000000         0.0000000000
lattice         0.0000000000         0.0000000000        20.0000000000
atom         0.0000000000        0.0000000000        0.0000000000 H         0.0000000000         0.0000000000        -0.0000000000       -0.0000000000      -80.3409256871
atom         0.0000000000        0.0000000000        0.9000000000 C         0.0000000000         0.0000000000         0.0000000000        0.0000000000       80.3409256871
energy      -174.4427145019
charge 0
end
begin
comment generated by PY
lattice        12.0000000000         0.0000000000         0.0000000000
lattice         0.0000000000        12.0000000000         0.0000000000
lattice         0.0000000000         0.0000000000        20.0000000000
atom         0.0000000000        0.0000000000        0.0000000000 H         0.0000000000         0.0000000000         0.0000000000        0.0000000000       -5.1729541370
atom         0.0000000000        0.0000000000        0.9600000000 C         0.0000000000         0.0000000000        -0.0000000000       -0.0000000000        5.1729541370
energy      -176.8535878514
charge 0
end
begin
comment generated by PY
lattice        12.0000000000         0.0000000000         0.0000000000
lattice         0.0000000000        12.0000000000         0.0000000000
lattice         0.0000000000         0.0000000000        20.0000000000
atom         0.0000000000        0.0000000000        0.0000000000 H         0.0000000000         0.0000000000         0.0000000000        0.0000000000       44.2455334276
atom         0.0000000000        0.0000000000        1.0200000000 C         0.0000000000         0.0000000000        -0.0000000000       -0.0000000000      -44.2455334276
energy      -175.5770433085
charge 0
end
begin
comment generated by PY
lattice        12.0000000000         0.0000000000         0.0000000000
lattice         0.0000000000        12.0000000000         0.0000000000
lattice         0.0000000000         0.0000000000        20.0000000000
atom         0.0000000000        0.0000000000        0.0000000000 H         0.0000000000         0.0000000000         0.0000000000       -0.0000000000       76.1830321080
atom         0.0000000000        0.0000000000        1.0800000000 C         0.0000000000         0.0000000000        -0.0000000000        0.0000000000      -76.1830321080
energy      -171.8929726954
charge 0
end
begin
comment generated by PY
lattice        12.0000000000         0.0000000000         0.0000000000
lattice         0.0000000000        12.0000000000         0.0000000000
lattice         0.0000000000         0.0000000000        20.0000000000
atom         0.0000000000        0.0000000000        0.0000000000 H         0.0000000000         0.0000000000        -0.0000000000        0.0000000000       96.1265292192
atom         0.0000000000        0.0000000000        1.1400000000 C         0.0000000000         0.0000000000         0.0000000000       -0.0000000000      -96.1265292192
energy      -166.6746918601
charge 0
end
begin
comment generated by PY
lattice        12.0000000000         0.0000000000         0.0000000000
lattice         0.0000000000        12.0000000000         0.0000000000
lattice         0.0000000000         0.0000000000        20.0000000000
atom         0.0000000000        0.0000000000        0.0000000000 H         0.0000000000         0.0000000000         0.0000000000       -0.0000000000      107.7938074042
atom         0.0000000000        0.0000000000        1.2000000000 C         0.0000000000         0.0000000000        -0.0000000000        0.0000000000     -107.7938074042
energy      -160.5232674792
charge 0
end
begin
comment generated by PY
lattice        12.0000000000         0.0000000000         0.0000000000
lattice         0.0000000000        12.0000000000         0.0000000000
lattice         0.0000000000         0.0000000000        20.0000000000
atom         0.0000000000        0.0000000000        0.0000000000 H         0.0000000000         0.0000000000        -0.0000000000        0.0000000000      113.7467443549
atom         0.0000000000        0.0000000000        1.2600000000 C         0.0000000000         0.0000000000         0.0000000000       -0.0000000000     -113.7467443549
energy      -153.8537320913
charge 0
end
begin
comment generated by PY
lattice        12.0000000000         0.0000000000         0.0000000000
lattice         0.0000000000        12.0000000000         0.0000000000
lattice         0.0000000000         0.0000000000        20.0000000000
atom         0.0000000000        0.0000000000        0.0000000000 H         0.0000000000         0.0000000000         0.0000000000        0.0000000000      115.7704960068
atom         0.0000000000        0.0000000000        1.3200000000 C         0.0000000000         0.0000000000        -0.0000000000       -0.0000000000     -115.7704960068
energy      -146.9522845123
charge 0
end
begin
comment generated by PY
lattice        12.0000000000         0.0000000000         0.0000000000
lattice         0.0000000000        12.0000000000         0.0000000000
lattice         0.0000000000         0.0000000000        20.0000000000
atom         0.0000000000        0.0000000000        0.0000000000 H         0.0000000000         0.0000000000         0.0000000000        0.0000000000      115.1296512850
atom         0.0000000000        0.0000000000        1.3800000000 C         0.0000000000         0.0000000000        -0.0000000000       -0.0000000000     -115.1296512850
energy      -140.0146591252
charge 0
end
begin
comment generated by PY
lattice        12.0000000000         0.0000000000         0.0000000000
lattice         0.0000000000        12.0000000000         0.0000000000
lattice         0.0000000000         0.0000000000        20.0000000000
atom         0.0000000000        0.0000000000        0.0000000000 H         0.0000000000         0.0000000000        -0.0000000000       -0.0000000000      112.7397013980
atom         0.0000000000        0.0000000000        1.4400000000 C         0.0000000000         0.0000000000         0.0000000000        0.0000000000     -112.7397013980
energy      -133.1718372878
charge 0
end
begin
comment generated by PY
lattice        12.0000000000         0.0000000000         0.0000000000
lattice         0.0000000000        12.0000000000         0.0000000000
lattice         0.0000000000         0.0000000000        20.0000000000
atom         0.0000000000        0.0000000000        0.0000000000 H         0.0000000000         0.0000000000        -0.0000000000        0.0000000000      109.2612646932
atom         0.0000000000        0.0000000000        1.5000000000 C         0.0000000000         0.0000000000         0.0000000000       -0.0000000000     -109.2612646932
energy      -126.5078179936
charge 0
end
begin
comment generated by PY
lattice        12.0000000000         0.0000000000         0.0000000000
lattice         0.0000000000        12.0000000000         0.0000000000
lattice         0.0000000000         0.0000000000        20.0000000000
atom         0.0000000000        0.0000000000        0.0000000000 H         0.0000000000         0.0000000000        -0.0000000000        0.0000000000      105.1492216593
atom         0.0000000000        0.0000000000        1.5600000000 C         0.0000000000         0.0000000000         0.0000000000       -0.0000000000     -105.1492216593
energy      -120.0733489345
charge 0
end
begin
comment generated by PY
lattice        12.0000000000         0.0000000000         0.0000000000
lattice         0.0000000000        12.0000000000         0.0000000000
lattice         0.0000000000         0.0000000000        20.0000000000
atom         0.0000000000        0.0000000000        0.0000000000 H         0.0000000000         0.0000000000        -0.0000000000        0.0000000000      100.6991065754
atom         0.0000000000        0.0000000000        1.6200000000 C         0.0000000000         0.0000000000         0.0000000000       -0.0000000000     -100.6991065754
energy      -113.8968827560
charge 0
end
begin
comment generated by PY
lattice        12.0000000000         0.0000000000         0.0000000000
lattice         0.0000000000        12.0000000000         0.0000000000
lattice         0.0000000000         0.0000000000        20.0000000000
atom         0.0000000000        0.0000000000        0.0000000000 H         0.0000000000         0.0000000000        -0.0000000000        0.0000000000       96.0847135178
atom         0.0000000000        0.0000000000        1.6800000000 C         0.0000000000         0.0000000000         0.0000000000       -0.0000000000      -96.0847135178
energy      -107.9929646610
charge 0
end
begin
comment generated by PY
lattice        12.0000000000         0.0000000000         0.0000000000
lattice         0.0000000000        12.0000000000         0.0000000000
lattice         0.0000000000         0.0000000000        20.0000000000
atom         0.0000000000        0.0000000000        0.0000000000 H         0.0000000000         0.0000000000        -0.0000000000       -0.0000000000       91.3979482736
atom         0.0000000000        0.0000000000        1.7400000000 C         0.0000000000         0.0000000000         0.0000000000        0.0000000000      -91.3979482736
energy      -102.3683606952
charge 0
end
begin
comment generated by PY
lattice        12.0000000000         0.0000000000         0.0000000000
lattice         0.0000000000        12.0000000000         0.0000000000
lattice         0.0000000000         0.0000000000        20.0000000000
atom         0.0000000000        0.0000000000        0.0000000000 H         0.0000000000         0.0000000000        -0.0000000000        0.0000000000       86.6711456963
atom         0.0000000000        0.0000000000        1.8000000000 C         0.0000000000         0.0000000000         0.0000000000       -0.0000000000      -86.6711456963
energy       -97.0261667720
charge 0
end
begin
comment generated by PY
lattice        12.0000000000         0.0000000000         0.0000000000
lattice         0.0000000000        12.0000000000         0.0000000000
lattice         0.0000000000         0.0000000000        20.0000000000
atom         0.0000000000        0.0000000000        0.0000000000 H         0.0000000000         0.0000000000         0.0000000000       -0.0000000000       81.8769132386
atom         0.0000000000        0.0000000000        1.8600000000 C         0.0000000000         0.0000000000        -0.0000000000        0.0000000000      -81.8769132386
energy       -91.9692350135
charge 0
end
begin
comment generated by PY
lattice        12.0000000000         0.0000000000         0.0000000000
lattice         0.0000000000        12.0000000000         0.0000000000
lattice         0.0000000000         0.0000000000        20.0000000000
atom         0.0000000000        0.0000000000        0.0000000000 H         0.0000000000         0.0000000000        -0.0000000000       -0.0000000000       76.8647433151
atom         0.0000000000        0.0000000000        1.9200000000 C         0.0000000000         0.0000000000         0.0000000000        0.0000000000      -76.8647433151
energy       -87.2051905234
charge 0
end
begin
comment generated by PY
lattice        12.0000000000         0.0000000000         0.0000000000
lattice         0.0000000000        12.0000000000         0.0000000000
lattice         0.0000000000         0.0000000000        20.0000000000
atom         0.0000000000        0.0000000000        0.0000000000 H         0.0000000000         0.0000000000        -0.0000000000        0.0000000000       71.1778818461
atom         0.0000000000        0.0000000000        1.9800000000 C         0.0000000000         0.0000000000         0.0000000000       -0.0000000000      -71.1778818461
energy       -82.7586155236
charge 0
end
begin
comment generated by PY
lattice        12.0000000000         0.0000000000         0.0000000000
lattice         0.0000000000        12.0000000000         0.0000000000
lattice         0.0000000000         0.0000000000        20.0000000000
atom         0.0000000000        0.0000000000        0.0000000000 H         0.0000000000         0.0000000000        -0.0000000000        0.0000000000       64.0035055579
atom         0.0000000000        0.0000000000        2.0400000000 C         0.0000000000         0.0000000000         0.0000000000       -0.0000000000      -64.0035055579
energy       -78.6941945504
charge 0
end
begin
comment generated by PY
lattice        12.0000000000         0.0000000000         0.0000000000
lattice         0.0000000000        12.0000000000         0.0000000000
lattice         0.0000000000         0.0000000000        20.0000000000
atom         0.0000000000        0.0000000000        0.0000000000 H         0.0000000000         0.0000000000        -0.0000230605       -0.0000461211       55.5034385973
atom         0.0000000000        0.0000000000        2.1000000000 C         0.0000000000         0.0000000000         0.0000230605        0.0000461211      -55.5034385973
energy       -75.1047126342
charge 0
end
begin
comment generated by PY
lattice        12.0000000000         0.0000000000         0.0000000000
lattice         0.0000000000        12.0000000000         0.0000000000
lattice         0.0000000000         0.0000000000        20.0000000000
atom         0.0000000000        0.0000000000        0.0000000000 H         0.0000000000         0.0000000000        -0.0000000000        0.0000230605       47.0998545051
atom         0.0000000000        0.0000000000        2.1600000000 C         0.0000000000         0.0000000000         0.0000000000       -0.0000230605      -47.0998545051
energy       -72.0247991954
charge 0
end
begin
comment generated by PY
lattice        12.0000000000         0.0000000000         0.0000000000
lattice         0.0000000000        12.0000000000         0.0000000000
lattice         0.0000000000         0.0000000000        20.0000000000
atom         0.0000000000        0.0000000000        0.0000000000 H         0.0000000000         0.0000000000         0.0000000000        0.0000000000       22.8519486060
atom         0.0000000000        0.0000000000        2.2200000000 C         0.0000000000         0.0000000000        -0.0000000000       -0.0000000000      -22.8519486060
energy       -64.8468379093
charge 0
end
begin
comment generated by PY
lattice        12.0000000000         0.0000000000         0.0000000000
lattice         0.0000000000        12.0000000000         0.0000000000
lattice         0.0000000000         0.0000000000        20.0000000000
atom         0.0000000000        0.0000000000        0.0000000000 H         0.0000000000         0.0000000000        -0.0000000000       -0.0000461211       16.6988970435
atom         0.0000000000        0.0000000000        2.2800000000 C         0.0000000000         0.0000000000         0.0000000000        0.0000461211      -16.6988970435
energy       -64.3861276722
charge 0
end
begin
comment generated by PY
lattice        12.0000000000         0.0000000000         0.0000000000
lattice         0.0000000000        12.0000000000         0.0000000000
lattice         0.0000000000         0.0000000000        20.0000000000
atom         0.0000000000        0.0000000000        0.0000000000 H         0.0000000000         0.0000000000        -0.0000691816        0.0000000000       14.2377945692
atom         0.0000000000        0.0000000000        2.3400000000 C         0.0000000000         0.0000000000         0.0000691816       -0.0000000000      -14.2377945692
energy       -63.4579918081
charge 0
end
begin
comment generated by PY
lattice        12.0000000000         0.0000000000         0.0000000000
lattice         0.0000000000        12.0000000000         0.0000000000
lattice         0.0000000000         0.0000000000        20.0000000000
atom         0.0000000000        0.0000000000        0.0000000000 H         0.0000000000         0.0000000000         0.0000000000       -0.0000000000       12.2354655852
atom         0.0000000000        0.0000000000        2.4000000000 C         0.0000000000         0.0000000000        -0.0000000000        0.0000000000      -12.2354655852
energy       -62.6539804220
charge 0
end
begin
comment generated by PY
lattice        12.0000000000         0.0000000000         0.0000000000
lattice         0.0000000000        12.0000000000         0.0000000000
lattice         0.0000000000         0.0000000000        20.0000000000
atom         0.0000000000        0.0000000000        0.0000000000 H         0.0000000000         0.0000000000         0.0000000000        0.0000000000       10.6052922166
atom         0.0000000000        0.0000000000        2.4600000000 C         0.0000000000         0.0000000000        -0.0000000000       -0.0000000000      -10.6052922166
energy       -61.9532108155
charge 0
end
begin
comment generated by PY
lattice        12.0000000000         0.0000000000         0.0000000000
lattice         0.0000000000        12.0000000000         0.0000000000
lattice         0.0000000000         0.0000000000        20.0000000000
atom         0.0000000000        0.0000000000        0.0000000000 H         0.0000000000         0.0000000000         0.0000000000       -0.0000000000        9.2693359367
atom         0.0000000000        0.0000000000        2.5200000000 C         0.0000000000         0.0000000000        -0.0000000000        0.0000000000       -9.2693359367
energy       -61.3362893574
charge 0
end
begin
comment generated by PY
lattice        12.0000000000         0.0000000000         0.0000000000
lattice         0.0000000000        12.0000000000         0.0000000000
lattice         0.0000000000         0.0000000000        20.0000000000
atom         0.0000000000        0.0000000000        0.0000000000 H         0.0000000000         0.0000000000        -0.0000461211        0.0000230605        8.1399875814
atom         0.0000000000        0.0000000000        2.5800000000 C         0.0000000000         0.0000000000         0.0000461211       -0.0000230605       -8.1399875814
energy       -60.7886837063
charge 0
end
begin
comment generated by PY
lattice        12.0000000000         0.0000000000         0.0000000000
lattice         0.0000000000        12.0000000000         0.0000000000
lattice         0.0000000000         0.0000000000        20.0000000000
atom         0.0000000000        0.0000000000        0.0000000000 H         0.0000000000         0.0000000000        -0.0000000000        0.0000230605        7.1488508847
atom         0.0000000000        0.0000000000        2.6400000000 C         0.0000000000         0.0000000000         0.0000000000       -0.0000230605       -7.1488508847
energy       -60.3007184934
charge 0
end
begin
comment generated by PY
lattice        12.0000000000         0.0000000000         0.0000000000
lattice         0.0000000000        12.0000000000         0.0000000000
lattice         0.0000000000         0.0000000000        20.0000000000
atom         0.0000000000        0.0000000000        0.0000000000 H         0.0000000000         0.0000000000        -0.0007379375        0.0004381504        6.2314293622
atom         0.0000000000        0.0000000000        2.7000000000 C         0.0000000000         0.0000000000         0.0007379375       -0.0004381504       -6.2314293622
energy       -59.8659057995
charge 0
end
begin
comment generated by PY
lattice        12.0000000000         0.0000000000         0.0000000000
lattice         0.0000000000        12.0000000000         0.0000000000
lattice         0.0000000000         0.0000000000        20.0000000000
atom         0.0000000000        0.0000000000        0.0000000000 H         0.0000000000         0.0000000000         0.0000691816       -0.0000230605        5.4510087406
atom         0.0000000000        0.0000000000        2.7600000000 C         0.0000000000         0.0000000000        -0.0000691816        0.0000230605       -5.4510087406
energy       -59.4793758113
charge 0
end
begin
comment generated by PY
lattice        12.0000000000         0.0000000000         0.0000000000
lattice         0.0000000000        12.0000000000         0.0000000000
lattice         0.0000000000         0.0000000000        20.0000000000
atom         0.0000000000        0.0000000000        0.0000000000 H         0.0000000000         0.0000000000        -0.0000230605       -0.0000230605        4.7270558685
atom         0.0000000000        0.0000000000        2.8200000000 C         0.0000000000         0.0000000000         0.0000230605        0.0000230605       -4.7270558685
energy       -59.1362941768
charge 0
end
begin
comment generated by PY
lattice        12.0000000000         0.0000000000         0.0000000000
lattice         0.0000000000        12.0000000000         0.0000000000
lattice         0.0000000000         0.0000000000        20.0000000000
atom         0.0000000000        0.0000000000        0.0000000000 H         0.0000000000         0.0000000000         0.0000230605        0.0000461211        4.0839457108
atom         0.0000000000        0.0000000000        2.8800000000 C         0.0000000000         0.0000000000        -0.0000230605       -0.0000461211       -4.0839457108
energy       -58.8320659942
charge 0
end
begin
comment generated by PY
lattice        12.0000000000         0.0000000000         0.0000000000
lattice         0.0000000000        12.0000000000         0.0000000000
lattice         0.0000000000         0.0000000000        20.0000000000
atom         0.0000000000        0.0000000000        0.0000000000 H         0.0000000000         0.0000000000        -0.0000000000       -0.0000230605        3.5168218045
atom         0.0000000000        0.0000000000        2.9400000000 C         0.0000000000         0.0000000000         0.0000000000        0.0000230605       -3.5168218045
energy       -58.5619417054
charge 0
end
begin
comment generated by PY
lattice        12.0000000000         0.0000000000         0.0000000000
lattice         0.0000000000        12.0000000000         0.0000000000
lattice         0.0000000000         0.0000000000        20.0000000000
atom         0.0000000000        0.0000000000        0.0000000000 H         0.0000000000         0.0000000000         0.0000000000        0.0000000000        3.0213273078
atom         0.0000000000        0.0000000000        3.0000000000 C         0.0000000000         0.0000000000        -0.0000000000       -0.0000000000       -3.0213273078
energy       -58.3211854180
charge 0
end
begin
comment generated by PY
lattice        12.0000000000         0.0000000000         0.0000000000
lattice         0.0000000000        12.0000000000         0.0000000000
lattice         0.0000000000         0.0000000000        20.0000000000
atom         0.0000000000        0.0000000000        0.0000000000 H         0.0000000000         0.0000000000         0.0000230605       -0.0000230605        2.5911192027
atom         0.0000000000        0.0000000000        3.0600000000 C         0.0000000000         0.0000000000        -0.0000230605        0.0000230605       -2.5911192027
energy       -58.1050303927
charge 0
end
begin
comment generated by PY
lattice        12.0000000000         0.0000000000         0.0000000000
lattice         0.0000000000        12.0000000000         0.0000000000
lattice         0.0000000000         0.0000000000        20.0000000000
atom         0.0000000000        0.0000000000        0.0000000000 H         0.0000000000         0.0000000000        -0.0000230605        0.0000230605        2.2177952956