begin
comment generated by PY
lattice        12.0000000000         0.0000000000         0.0000000000
lattice         0.0000000000        12.0000000000         0.0000000000
lattice         0.0000000000         0.0000000000        20.0000000000
atom         0.0000000000        0.0000000000        0.0000000000 C         0.0000000000         0.0000000000         0.0000000000        0.0000230605   -17082.1933428844
atom         0.0000000000        0.0000000000        0.5000000000 N         0.0000000000         0.0000000000        -0.0000000000       -0.0000230605    17082.1933428844
energy      2137.4613875145
charge 0
end
begin
comment generated by PY
lattice        12.0000000000         0.0000000000         0.0000000000
lattice         0.0000000000        12.0000000000         0.0000000000
lattice         0.0000000000         0.0000000000        20.0000000000
atom         0.0000000000        0.0000000000        0.0000000000 C         0.0000000000         0.0000000000        -0.0001614238        0.0000230605   -12117.2286862055
atom         0.0000000000        0.0000000000        0.5600000000 N         0.0000000000         0.0000000000         0.0001614238       -0.0000230605    12117.2286862055
energy      1269.3551894301
charge 0
end
begin
comment generated by PY
lattice        12.0000000000         0.0000000000         0.0000000000
lattice         0.0000000000        12.0000000000         0.0000000000
lattice         0.0000000000         0.0000000000        20.0000000000
atom         0.0000000000        0.0000000000        0.0000000000 C         0.0000000000         0.0000000000         0.0000000000        0.0000000000    -8504.0207534790
atom         0.0000000000        0.0000000000        0.6200000000 N         0.0000000000         0.0000000000        -0.0000000000       -0.0000000000     8504.0207534790
energy       656.3699152192
charge 0
end
begin
comment generated by PY
lattice        12.0000000000         0.0000000000         0.0000000000
lattice         0.0000000000        12.0000000000         0.0000000000
lattice         0.0000000000         0.0000000000        20.0000000000
atom         0.0000000000        0.0000000000        0.0000000000 C         0.0000000000         0.0000000000        -0.0000000000        0.0000000000    -5855.6860172364
atom         0.0000000000        0.0000000000        0.6800000000 N         0.0000000000         0.0000000000         0.0000000000       -0.0000000000     5855.6860172364
energy       229.6219570478
charge 0
end
begin
comment generated by PY
lattice        12.0000000000         0.0000000000         0.0000000000
lattice         0.0000000000        12.0000000000         0.0000000000
lattice         0.0000000000         0.0000000000        20.0000000000
atom         0.0000000000        0.0000000000        0.0000000000 C         0.0000000000         0.0000000000        -0.0000000000        0.0000000000    -3907.0139754802
atom         0.0000000000        0.0000000000        0.7400000000 N         0.0000000000         0.0000000000         0.0000000000       -0.0000000000     3907.0139754802
energy       -60.2706547513
charge 0
end
begin
comment generated by PY
lattice        12.0000000000         0.0000000000         0.0000000000
lattice         0.0000000000        12.0000000000         0.0000000000
lattice         0.0000000000         0.0000000000        20.0000000000
atom         0.0000000000        0.0000000000        0.0000000000 C         0.0000000000         0.0000000000         0.0000000000       -0.0000000000    -2488.8111508056
atom         0.0000000000        0.0000000000        0.8000000000 N         0.0000000000         0.0000000000        -0.0000000000        0.0000000000     2488.8111508056
energy      -249.8184849309
charge 0
end
begin
comment generated by PY
lattice        12.0000000000         0.0000000000         0.0000000000
lattice         0.0000000000        12.0000000000         0.0000000000
lattice         0.0000000000         0.0000000000        20.0000000000
atom         0.0000000000        0.0000000000        0.0000000000 C         0.0000000000         0.0000000000        -0.0000230605       -0.0000230605    -1482.4342348895
atom         0.0000000000        0.0000000000        0.8600000000 N         0.0000000000         0.0000000000         0.0000230605        0.0000230605     1482.4342348895
energy      -367.1777071634
charge 0
end
begin
comment generated by PY
lattice        12.0000000000         0.0000000000         0.0000000000
lattice         0.0000000000        12.0000000000         0.0000000000
lattice         0.0000000000         0.0000000000        20.0000000000
atom         0.0000000000        0.0000000000        0.0000000000 C         0.0000000000         0.0000000000        -0.0000000000       -0.0000691816     -783.1469459325
atom         0.0000000000        0.0000000000        0.9200000000 N         0.0000000000         0.0000000000         0.0000000000        0.0000691816      783.1469459325
energy      -433.8532256006
charge 0
end
begin
comment generated by PY
lattice        12.0000000000         0.0000000000         0.0000000000
lattice         0.0000000000        12.0000000000         0.0000000000
lattice         0.0000000000         0.0000000000        20.0000000000
atom         0.0000000000        0.0000000000        0.0000000000 C         0.0000000000         0.0000000000         0.0000000000       -0.0000691816     -304.1588532745
atom         0.0000000000        0.0000000000        0.9800000000 N         0.0000000000         0.0000000000        -0.0000000000        0.0000691816      304.1588532745
energy      -465.5558021788
charge 0
end
begin
comment generated by PY
lattice        12.0000000000         0.0000000000         0.0000000000
lattice         0.0000000000        12.0000000000         0.0000000000
lattice         0.0000000000         0.0000000000        20.0000000000
atom         0.0000000000        0.0000000000        0.0000000000 C         0.0000000000         0.0000000000         0.0000000000       -0.0000000000       18.5484524604
atom         0.0000000000        0.0000000000        1.0400000000 N         0.0000000000         0.0000000000        -0.0000000000        0.0000000000      -18.5484524604
energy      -473.4729993829
charge 0
end
begin
comment generated by PY
lattice        12.0000000000         0.0000000000         0.0000000000
lattice         0.0000000000        12.0000000000         0.0000000000
lattice         0.0000000000         0.0000000000        20.0000000000
atom         0.0000000000        0.0000000000        0.0000000000 C         0.0000000000         0.0000000000        -0.0000230605       -0.0000691816      229.7845113346
atom         0.0000000000        0.0000000000        1.1000000000 N         0.0000000000         0.0000000000         0.0000230605        0.0000691816     -229.7845113346
energy      -465.5568415876
charge 0
end
begin
comment generated by PY
lattice        12.0000000000         0.0000000000         0.0000000000
lattice         0.0000000000        12.0000000000         0.0000000000
lattice         0.0000000000         0.0000000000        20.0000000000
atom         0.0000000000        0.0000000000        0.0000000000 C         0.0000000000         0.0000000000         0.0000000000       -0.0000000000      361.2067838811
atom         0.0000000000        0.0000000000        1.1600000000 N         0.0000000000         0.0000000000        -0.0000000000        0.0000000000     -361.2067838811
energy      -447.4938122949
charge 0
end
begin
comment generated by PY
lattice        12.0000000000         0.0000000000         0.0000000000
lattice         0.0000000000        12.0000000000         0.0000000000
lattice         0.0000000000         0.0000000000        20.0000000000
atom         0.0000000000        0.0000000000        0.0000000000 C         0.0000000000         0.0000000000         0.0000000000       -0.0000000000      435.9961139433
atom         0.0000000000        0.0000000000        1.2200000000 N         0.0000000000         0.0000000000        -0.0000000000        0.0000000000     -435.9961139433
energy      -423.3435322598
charge 0
end
begin
comment generated by PY
lattice        12.0000000000         0.0000000000         0.0000000000
lattice         0.0000000000        12.0000000000         0.0000000000
lattice         0.0000000000         0.0000000000        20.0000000000
atom         0.0000000000        0.0000000000        0.0000000000 C         0.0000000000         0.0000000000         0.0000000000        0.0000000000      471.4721425007
atom         0.0000000000        0.0000000000        1.2800000000 N         0.0000000000         0.0000000000        -0.0000000000       -0.0000000000     -471.4721425007
energy      -395.9593782246
charge 0
end
begin
comment generated by PY
lattice        12.0000000000         0.0000000000         0.0000000000
lattice         0.0000000000        12.0000000000         0.0000000000
lattice         0.0000000000         0.0000000000        20.0000000000
atom         0.0000000000        0.0000000000        0.0000000000 C         0.0000000000         0.0000000000        -0.0000000000       -0.0000000000      449.3142616371
atom         0.0000000000        0.0000000000        1.3400000000 N         0.0000000000         0.0000000000         0.0000000000        0.0000000000     -449.3142616371
energy      -357.4682826843
charge 0
end
begin
comment generated by PY
lattice        12.0000000000         0.0000000000         0.0000000000
lattice         0.0000000000        12.0000000000         0.0000000000
lattice         0.0000000000         0.0000000000        20.0000000000
atom         0.0000000000        0.0000000000        0.0000000000 C         0.0000000000         0.0000000000        -0.0000000000        0.0000461211      471.5754206349
atom         0.0000000000        0.0000000000        1.4000000000 N         0.0000000000         0.0000000000         0.0000000000       -0.0000461211     -471.5754206349
energy      -338.6179965634
charge 0
end
begin
comment generated by PY
lattice        12.0000000000         0.0000000000         0.0000000000
lattice         0.0000000000        12.0000000000         0.0000000000
lattice         0.0000000000         0.0000000000        20.0000000000
atom         0.0000000000        0.0000000000        0.0000000000 C         0.0000000000         0.0000000000         0.0000000000       -0.0001383633      448.7665348310
atom         0.0000000000        0.0000000000        1.4600000000 N         0.0000000000         0.0000000000        -0.0000000000        0.0001383633     -448.7665348310
energy      -310.6069225285
charge 0
end
begin
comment generated by PY
lattice        12.0000000000         0.0000000000         0.0000000000
lattice         0.0000000000        12.0000000000         0.0000000000
lattice         0.0000000000         0.0000000000        20.0000000000
atom         0.0000000000        0.0000000000        0.0000000000 C         0.0000000000         0.0000000000         0.0000691816       -0.0000922422      360.4376989661
atom         0.0000000000        0.0000000000        1.5200000000 N         0.0000000000         0.0000000000        -0.0000691816        0.0000922422     -360.4376989661
energy      -285.3614216885
charge 0
end
begin
comment generated by PY
lattice        12.0000000000         0.0000000000         0.0000000000
lattice         0.0000000000        12.0000000000         0.0000000000
lattice         0.0000000000         0.0000000000        20.0000000000
atom         0.0000000000        0.0000000000        0.0000000000 C         0.0000000000         0.0000000000         0.0000000000        0.0000230605      335.2155987434
atom         0.0000000000        0.0000000000        1.5800000000 N         0.0000000000         0.0000000000        -0.0000000000       -0.0000230605     -335.2155987434
energy      -264.7704295649
charge 0
end
begin
comment generated by PY
lattice        12.0000000000         0.0000000000         0.0000000000
lattice         0.0000000000        12.0000000000         0.0000000000
lattice         0.0000000000         0.0000000000        20.0000000000
atom         0.0000000000        0.0000000000        0.0000000000 C         0.0000000000         0.0000000000        -0.0000230605       -0.0000461211      312.5261011965
atom         0.0000000000        0.0000000000        1.6400000000 N         0.0000000000         0.0000000000         0.0000230605        0.0000461211     -312.5261011965
energy      -245.3362316487
charge 0
end
begin
comment generated by PY
lattice        12.0000000000         0.0000000000         0.0000000000
lattice         0.0000000000        12.0000000000         0.0000000000
lattice         0.0000000000         0.0000000000        20.0000000000
atom         0.0000000000        0.0000000000        0.0000000000 C         0.0000000000         0.0000000000         0.0000000000       -0.0000230605      287.1912984047
atom         0.0000000000        0.0000000000        1.7000000000 N         0.0000000000         0.0000000000        -0.0000000000        0.0000230605     -287.1912984047
energy      -227.3308474578
charge 0
end
begin
comment generated by PY
lattice        12.0000000000         0.0000000000         0.0000000000
lattice         0.0000000000        12.0000000000         0.0000000000
lattice         0.0000000000         0.0000000000        20.0000000000
atom         0.0000000000        0.0000000000        0.0000000000 C         0.0000000000         0.0000000000         0.0000000000        0.0000000000      258.9960044817
atom         0.0000000000        0.0000000000        1.7600000000 N         0.0000000000         0.0000000000        -0.0000000000       -0.0000000000     -258.9960044817
energy      -210.9330835373
charge 0
end
begin
comment generated by PY
lattice        12.0000000000         0.0000000000         0.0000000000
lattice         0.0000000000        12.0000000000         0.0000000000
lattice         0.0000000000         0.0000000000        20.0000000000
atom         0.0000000000        0.0000000000        0.0000000000 C         0.0000000000         0.0000000000        -0.0000000000        0.0000000000      229.7112826070
atom         0.0000000000        0.0000000000        1.8200000000 N         0.0000000000         0.0000000000         0.0000000000       -0.0000000000     -229.7112826070
energy      -196.2746245195
charge 0
end
begin
comment generated by PY
lattice        12.0000000000         0.0000000000         0.0000000000
lattice         0.0000000000        12.0000000000         0.0000000000
lattice         0.0000000000         0.0000000000        20.0000000000
atom         0.0000000000        0.0000000000        0.0000000000 C         0.0000000000         0.0000000000         0.0000000000       -0.0000000000      202.1753669786
atom         0.0000000000        0.0000000000        1.8800000000 N         0.0000000000         0.0000000000        -0.0000000000        0.0000000000     -202.1753669786
energy      -183.3317108243
charge 0
end
begin
comment generated by PY
lattice        12.0000000000         0.0000000000         0.0000000000
lattice         0.0000000000        12.0000000000         0.0000000000
lattice         0.0000000000         0.0000000000        20.0000000000
atom         0.0000000000        0.0000000000        0.0000000000 C         0.0000000000         0.0000000000        -0.0000000000       -0.0000000000      177.6318245558
atom         0.0000000000        0.0000000000        1.9400000000 N         0.0000000000         0.0000000000         0.0000000000        0.0000000000     -177.6318245558
energy      -171.9532080009
charge 0
end
begin
comment generated by PY
lattice        12.0000000000         0.0000000000         0.0000000000
lattice         0.0000000000        12.0000000000         0.0000000000
lattice         0.0000000000         0.0000000000        20.0000000000
atom         0.0000000000        0.0000000000        0.0000000000 C         0.0000000000         0.0000000000         0.0000000000       -0.0000000000      156.0507077212
atom         0.0000000000        0.0000000000        2.0000000000 N         0.0000000000         0.0000000000        -0.0000000000        0.0000000000     -156.0507077212
energy      -161.9566653025
charge 0
end
begin
comment generated by PY
lattice        12.0000000000         0.0000000000         0.0000000000
lattice         0.0000000000        12.0000000000         0.0000000000
lattice         0.0000000000         0.0000000000        20.0000000000
atom         0.0000000000        0.0000000000        0.0000000000 C         0.0000000000         0.0000000000        -0.0000000000        0.0000000000      136.9464307224
atom         0.0000000000        0.0000000000        2.0600000000 N         0.0000000000         0.0000000000         0.0000000000       -0.0000000000     -136.9464307224
energy      -153.1776813761
charge 0
end
begin
comment generated by PY
lattice        12.0000000000         0.0000000000         0.0000000000
lattice         0.0000000000        12.0000000000         0.0000000000
lattice         0.0000000000         0.0000000000        20.0000000000
atom         0.0000000000        0.0000000000        0.0000000000 C         0.0000000000         0.0000000000        -0.0000230605        0.0000000000      119.7395869021
atom         0.0000000000        0.0000000000        2.1200000000 N         0.0000000000         0.0000000000         0.0000230605       -0.0000000000     -119.7395869021
energy      -145.4840328073
charge 0
end
begin
comment generated by PY
lattice        12.0000000000         0.0000000000         0.0000000000
lattice         0.0000000000        12.0000000000         0.0000000000
lattice         0.0000000000         0.0000000000        20.0000000000
atom         0.0000000000        0.0000000000        0.0000000000 C         0.0000000000         0.0000000000         0.0000230605       -0.0000000000      103.9453963040
atom         0.0000000000        0.0000000000        2.1800000000 N         0.0000000000         0.0000000000        -0.0000230605        0.0000000000     -103.9453963040
energy      -138.7735949594
charge 0
end
begin
comment generated by PY
lattice        12.0000000000         0.0000000000         0.0000000000
lattice         0.0000000000        12.0000000000         0.0000000000
lattice         0.0000000000         0.0000000000        20.0000000000
atom         0.0000000000        0.0000000000        0.0000000000 C         0.0000000000         0.0000000000        -0.0000230605       -0.0000230605       89.3342969874
atom         0.0000000000        0.0000000000        2.2400000000 N         0.0000000000         0.0000000000         0.0000230605        0.0000230605      -89.3342969874
energy      -132.9643822273
charge 0
end
begin
comment generated by PY
lattice        12.0000000000         0.0000000000         0.0000000000
lattice         0.0000000000        12.0000000000         0.0000000000
lattice         0.0000000000         0.0000000000        20.0000000000
atom         0.0000000000        0.0000000000        0.0000000000 C         0.0000000000         0.0000000000         0.0000230605       -0.0000461211       75.9828605880
atom         0.0000000000        0.0000000000        2.3000000000 N         0.0000000000         0.0000000000        -0.0000230605        0.0000461211      -75.9828605880
energy      -127.9824433639
charge 0
end
begin
comment generated by PY
lattice        12.0000000000         0.0000000000         0.0000000000
lattice         0.0000000000        12.0000000000         0.0000000000
lattice         0.0000000000         0.0000000000        20.0000000000
atom         0.0000000000        0.0000000000        0.0000000000 C         0.0000000000         0.0000000000        -0.0000461211       -0.0000691816       64.1147036525
atom         0.0000000000        0.0000000000        2.3600000000 N         0.0000000000         0.0000000000         0.0000461211        0.0000691816      -64.1147036525
energy      -123.7500704494
charge 0
end
begin
comment generated by PY
lattice        12.0000000000         0.0000000000         0.0000000000
lattice         0.0000000000        12.0000000000         0.0000000000
lattice         0.0000000000         0.0000000000        20.0000000000
atom         0.0000000000        0.0000000000        0.0000000000 C         0.0000000000         0.0000000000        -0.0000000000       -0.0000230605       53.8301240704
atom         0.0000000000        0.0000000000        2.4200000000 N         0.0000000000         0.0000000000         0.0000000000        0.0000230605      -53.8301240704
energy      -120.1806394639
charge 0
end
begin
comment generated by PY
lattice        12.0000000000         0.0000000000         0.0000000000
lattice         0.0000000000        12.0000000000         0.0000000000
lattice         0.0000000000         0.0000000000        20.0000000000
atom         0.0000000000        0.0000000000        0.0000000000 C         0.0000000000         0.0000000000         0.0000000000       -0.0000000000       45.0676501057
atom         0.0000000000        0.0000000000        2.4800000000 N         0.0000000000         0.0000000000        -0.0000000000        0.0000000000      -45.0676501057
energy      -117.1838874224
charge 0
end
begin
comment generated by PY
lattice        12.0000000000         0.0000000000         0.0000000000
lattice         0.0000000000        12.0000000000         0.0000000000
lattice         0.0000000000         0.0000000000        20.0000000000
atom         0.0000000000        0.0000000000        0.0000000000 C         0.0000000000         0.0000000000        -0.0000461211       -0.0000461211       37.6730073101
atom         0.0000000000        0.0000000000        2.5400000000 N         0.0000000000         0.0000000000         0.0000461211        0.0000461211      -37.6730073101
energy      -114.6740501214
charge 0
end
begin
comment generated by PY
lattice        12.0000000000         0.0000000000         0.0000000000
lattice         0.0000000000        12.0000000000         0.0000000000
lattice         0.0000000000         0.0000000000        20.0000000000
atom         0.0000000000        0.0000000000        0.0000000000 C         0.0000000000         0.0000000000        -0.0008993614        0.0003920293       31.4676358626
atom         0.0000000000        0.0000000000        2.6000000000 N         0.0000000000         0.0000000000         0.0008993614       -0.0003920293      -31.4676358626
energy      -112.5718611623
charge 0
end
begin
comment generated by PY
lattice        12.0000000000         0.0000000000         0.0000000000
lattice         0.0000000000        12.0000000000         0.0000000000
lattice         0.0000000000         0.0000000000        20.0000000000
atom         0.0000000000        0.0000000000        0.0000000000 C         0.0000000000         0.0000000000         0.0000230605        0.0000230605       26.2897911596
atom         0.0000000000        0.0000000000        2.6600000000 N         0.0000000000         0.0000000000        -0.0000230605       -0.0000230605      -26.2897911596
energy      -110.8184209301
charge 0
end
begin
comment generated by PY
lattice        12.0000000000         0.0000000000         0.0000000000
lattice         0.0000000000        12.0000000000         0.0000000000
lattice         0.0000000000         0.0000000000        20.0000000000
atom         0.0000000000        0.0000000000        0.0000000000 C         0.0000000000         0.0000000000        -0.0000000000        0.0000000000       21.9922971213
atom         0.0000000000        0.0000000000        2.7200000000 N         0.0000000000         0.0000000000         0.0000000000       -0.0000000000      -21.9922971213
energy      -109.3483393109
charge 0
end
begin
comment generated by PY
lattice        12.0000000000         0.0000000000         0.0000000000
lattice         0.0000000000        12.0000000000         0.0000000000
lattice         0.0000000000         0.0000000000        20.0000000000
atom         0.0000000000        0.0000000000        0.0000000000 C         0.0000000000         0.0000000000         0.0000000000        0.0000000000       18.4565463664
atom         0.0000000000        0.0000000000        2.7800000000 N         0.0000000000         0.0000000000        -0.0000000000       -0.0000000000      -18.4565463664
energy      -108.1150573924
charge 0
end
begin
comment generated by PY
lattice        12.0000000000         0.0000000000         0.0000000000
lattice         0.0000000000        12.0000000000         0.0000000000
lattice         0.0000000000         0.0000000000        20.0000000000
atom         0.0000000000        0.0000000000        0.0000000000 C         0.0000000000         0.0000000000        -0.0000922422        0.0000461211       15.5694476015
atom         0.0000000000        0.0000000000        2.8400000000 N         0.0000000000         0.0000000000         0.0000922422       -0.0000461211      -15.5694476015
energy      -107.0749363486
charge 0
end
begin
comment generated by PY
lattice        12.0000000000         0.0000000000         0.0000000000
lattice         0.0000000000        12.0000000000         0.0000000000
lattice         0.0000000000         0.0000000000        20.0000000000
atom         0.0000000000        0.0000000000        0.0000000000 C         0.0000000000         0.0000000000         0.0000000000        0.0000230605       13.2178014822
atom         0.0000000000        0.0000000000        2.9000000000 N         0.0000000000         0.0000000000        -0.0000000000       -0.0000230605      -13.2178014822
energy      -106.1948863228
charge 0
end
begin
comment generated by PY
lattice        12.0000000000         0.0000000000         0.0000000000
lattice         0.0000000000        12.0000000000         0.0000000000
lattice         0.0000000000         0.0000000000        20.0000000000
atom         0.0000000000        0.0000000000        0.0000000000 C         0.0000000000         0.0000000000         0.0000230605       -0.0000000000       11.2805718433
atom         0.0000000000        0.0000000000        2.9600000000 N         0.0000000000         0.0000000000        -0.0000230605        0.0000000000      -11.2805718433
energy      -105.4439015831
charge 0
end
begin
comment generated by PY
lattice        12.0000000000         0.0000000000         0.0000000000
lattice         0.0000000000        12.0000000000         0.0000000000
lattice         0.0000000000         0.0000000000        20.0000000000
atom         0.0000000000        0.0000000000        0.0000000000 C         0.0000000000         0.0000000000         0.0000000000       -0.0000000000        9.6586719560
atom         0.0000000000        0.0000000000        3.0200000000 N         0.0000000000         0.0000000000        -0.0000000000        0.0000000000       -9.6586719560
energy      -104.8009579388
charge 0
end
begin
comment generated by PY
lattice        12.0000000000         0.0000000000         0.0000000000
lattice         0.0000000000        12.0000000000         0.0000000000
lattice         0.0000000000         0.0000000000        20.0000000000
atom         0.0000000000        0.0000000000        0.0000000000 C         0.0000000000         0.0000000000        -0.0000691816       -0.0001383633        8.2766030379
atom         0.0000000000        0.0000000000        3.0800000000 N         0.0000000000         0.0000000000         0.0000691816        0.0001383633       -8.2766030379
energy      -104.2495501929
charge 0
end
begin
comment generated by PY
lattice        12.0000000000         0.0000000000         0.0000000000
lattice         0.0000000000        12.0000000000         0.0000000000
lattice         0.0000000000         0.0000000000        20.0000000000
atom         0.0000000000        0.0000000000        0.0000000000 C         0.0000000000         0.0000000000        -0.0000000000        0.0000000000        7.0850748821
atom         0.0000000000        0.0000000000        3.1400000000 N         0.0000000000         0.0000000000         0.0000000000       -0.0000000000       -7.0850748821
energy      -103.7768187441
charge 0
end
begin
comment generated by PY
lattice        12.0000000000         0.0000000000         0.0000000000
lattice         0.0000000000        12.0000000000         0.0000000000
lattice         0.0000000000         0.0000000000        20.0000000000
atom         0.0000000000        0.0000000000        0.0000000000 C         0.0000000000         0.0000000000         0.0000230605        0.0000000000        6.0547854174
atom         0.0000000000        0.0000000000        3.2000000000 N         0.0000000000         0.0000000000        -0.0000230605       -0.0000000000       -6.0547854174
energy      -103.3723110123
charge 0
end
begin
comment generated by PY
lattice        12.0000000000         0.0000000000         0.0000000000
lattice         0.0000000000        12.0000000000         0.0000000000
lattice         0.0000000000         0.0000000000        20.0000000000
atom         0.0000000000        0.0000000000        0.0000000000 C         0.0000000000         0.0000000000        -0.0000000000       -0.0000000000        5.1633679828
atom         0.0000000000        0.0000000000        3.2600000000 N         0.0000000000         0.0000000000         0.0000000000        0.0000000000       -5.1633679828
energy      -103.0269584370
charge 0
end
begin
comment generated by PY
lattice        12.0000000000         0.0000000000         0.0000000000
lattice         0.0000000000        12.0000000000         0.0000000000
lattice         0.0000000000         0.0000000000        20.0000000000
atom         0.0000000000        0.0000000000        0.0000000000 C         0.0000000000         0.0000000000        -0.0000000000        0.0000000000        4.3940063005