begin
comment generated by PY
lattice        12.0000000000         0.0000000000         0.0000000000
lattice         0.0000000000        12.0000000000         0.0000000000
lattice         0.0000000000         0.0000000000        20.0000000000
atom         6.0000000000        6.0000000000        9.8500000000 C         0.0000000000         0.0000000000         0.0000691816       -0.0000922422     1771.0280055323
atom         6.0000000000        6.0000000000       11.0267800000 O         0.0000000000         0.0000000000         0.0000230605        0.0000230605     -149.0553364908
atom         6.0000000000        6.0000000000        8.9732200000 O         0.0000000000         0.0000000000        -0.0000922422        0.0000691816    -1621.9726690415
energy      -535.6091058406
charge 0
end
begin
comment generated by PY
lattice        12.0000000000         0.0000000000         0.0000000000
lattice         0.0000000000        12.0000000000         0.0000000000
lattice         0.0000000000         0.0000000000        20.0000000000
atom         6.0000000000        6.0000000000        9.8800000000 C         0.0000000000         0.0000000000         0.0000691816        0.0001153027     1081.3654611387
atom         6.0000000000        6.0000000000       11.0567800000 O         0.0000000000         0.0000000000         0.0001383633        0.0003920293     -159.2905081558
atom         6.0000000000        6.0000000000        8.9432200000 O         0.0000000000         0.0000000000        -0.0002075449       -0.0004842715     -922.0749529829
energy      -610.5543514415
charge 0
end
begin
comment generated by PY
lattice        12.0000000000         0.0000000000         0.0000000000
lattice         0.0000000000        12.0000000000         0.0000000000
lattice         0.0000000000         0.0000000000        20.0000000000
atom         6.0000000000        6.0000000000        9.9100000000 C         0.0000000000         0.0000000000        -0.0000461211       -0.0000000000      622.8712990463
atom         6.0000000000        6.0000000000       11.0867800000 O         0.0000000000         0.0000000000        -0.0000230605       -0.0000230605     -169.0703942534
atom         6.0000000000        6.0000000000        8.9132200000 O         0.0000000000         0.0000000000         0.0000691816        0.0000230605     -453.8009047929
energy      -650.9036247854
charge 0
end
begin
comment generated by PY
lattice        12.0000000000         0.0000000000         0.0000000000
lattice         0.0000000000        12.0000000000         0.0000000000
lattice         0.0000000000         0.0000000000        20.0000000000
atom         6.0000000000        6.0000000000        9.9400000000 C         0.0000000000         0.0000000000        -0.0000000000       -0.0000230605      320.1889261969
atom         6.0000000000        6.0000000000       11.1167800000 O         0.0000000000         0.0000000000        -0.0000230605       -0.0000000000     -178.2786365773
atom         6.0000000000        6.0000000000        8.8832200000 O         0.0000000000         0.0000000000         0.0000230605        0.0000230605     -141.9110896196
energy      -668.1490455385
charge 0
end
begin
comment generated by PY
lattice        12.0000000000         0.0000000000         0.0000000000
lattice         0.0000000000        12.0000000000         0.0000000000
lattice         0.0000000000         0.0000000000        20.0000000000
atom         6.0000000000        6.0000000000        9.9700000000 C         0.0000000000         0.0000000000         0.0000230605       -0.0001153027      123.4499557914
atom         6.0000000000        6.0000000000       11.1467800000 O         0.0000000000         0.0000000000         0.0000230605        0.0000461211     -186.5598084570
atom         6.0000000000        6.0000000000        8.8532200000 O         0.0000000000         0.0000000000        -0.0000461211        0.0000691816       63.1099296050
energy      -670.0834540986
charge 0
end
begin
comment generated by PY
lattice        12.0000000000         0.0000000000         0.0000000000
lattice         0.0000000000        12.0000000000         0.0000000000
lattice         0.0000000000         0.0000000000        20.0000000000
atom         6.0000000000        6.0000000000       10.0000000000 C         0.0000000000         0.0000000000        -0.0000230605       -0.0001844844       -0.0000000000
atom         6.0000000000        6.0000000000       11.1767800000 O         0.0000000000         0.0000000000        -0.0000691816        0.0000461211     -194.0794400420
atom         6.0000000000        6.0000000000        8.8232200000 O         0.0000000000         0.0000000000         0.0000922422        0.0001383633      194.0794400420
energy      -662.0687167860
charge 0
end
begin
comment generated by PY
lattice        12.0000000000         0.0000000000         0.0000000000
lattice         0.0000000000        12.0000000000         0.0000000000
lattice         0.0000000000         0.0000000000        20.0000000000
atom         6.0000000000        6.0000000000       10.0300000000 C         0.0000000000         0.0000000000         0.0000000000        0.0000691816      -72.1382875228
atom         6.0000000000        6.0000000000       11.2067800000 O         0.0000000000         0.0000000000         0.0000230605       -0.0000230605     -200.8143550070
atom         6.0000000000        6.0000000000        8.7932200000 O         0.0000000000         0.0000000000        -0.0000230605       -0.0000461211      272.9534425298
energy      -647.8478950407
charge 0
end
begin
comment generated by PY
lattice        12.0000000000         0.0000000000         0.0000000000
lattice         0.0000000000        12.0000000000         0.0000000000
lattice         0.0000000000         0.0000000000        20.0000000000
atom         6.0000000000        6.0000000000       10.0600000000 C         0.0000000000         0.0000000000        -0.0000230605        0.0000461211     -108.5485076739
atom         6.0000000000        6.0000000000       11.2367800000 O         0.0000000000         0.0000000000         0.0000230605       -0.0000000000     -206.9664942153
atom         6.0000000000        6.0000000000        8.7632200000 O         0.0000000000         0.0000000000        -0.0000000000       -0.0000461211      315.5151018892
energy      -630.0509513729
charge 0
end
begin
comment generated by PY
lattice        12.0000000000         0.0000000000         0.0000000000
lattice         0.0000000000        12.0000000000         0.0000000000
lattice         0.0000000000         0.0000000000        20.0000000000
atom         6.0000000000        6.0000000000       10.0900000000 C         0.0000000000         0.0000000000        -0.0000691816        0.0000461211     -120.6237440268
atom         6.0000000000        6.0000000000       11.2667800000 O         0.0000000000         0.0000000000         0.0000461211        0.0000230605     -212.7119267239
atom         6.0000000000        6.0000000000        8.7332200000 O         0.0000000000         0.0000000000         0.0000230605       -0.0000691816      333.3352707507
energy      -610.4898006751
charge 0
end
begin
comment generated by PY
lattice        12.0000000000         0.0000000000         0.0000000000
lattice         0.0000000000        12.0000000000         0.0000000000
lattice         0.0000000000         0.0000000000        20.0000000000
atom         6.0000000000        6.0000000000       10.1200000000 C         0.0000000000         0.0000000000        -0.0000461211       -0.0000230605     -116.6745080192
atom         6.0000000000        6.0000000000       11.2967800000 O         0.0000000000         0.0000000000        -0.0000230605        0.0000230605     -218.1446072359
atom         6.0000000000        6.0000000000        8.7032200000 O         0.0000000000         0.0000000000         0.0000461211       -0.0000000000      334.8194152551
energy      -590.3849802516
charge 0
end
begin
comment generated by PY
lattice        12.0000000000         0.0000000000         0.0000000000
lattice         0.0000000000        12.0000000000         0.0000000000
lattice         0.0000000000         0.0000000000        20.0000000000
atom         6.0000000000        6.0000000000       10.1500000000 C         0.0000000000         0.0000000000         0.0000691816       -0.0000691816     -102.3836490619
atom         6.0000000000        6.0000000000       11.3267800000 O         0.0000000000         0.0000000000        -0.0001614238        0.0002997871     -223.4423721926
atom         6.0000000000        6.0000000000        8.6732200000 O         0.0000000000         0.0000000000         0.0000922422       -0.0002306055      325.8261212545
energy      -570.5273414746
charge 0
end
begin
comment generated by PY
lattice        12.0000000000         0.0000000000         0.0000000000
lattice         0.0000000000        12.0000000000         0.0000000000
lattice         0.0000000000         0.0000000000        20.0000000000
atom         6.0000000000        6.0000000000       10.1800000000 C         0.0000000000         0.0000000000         0.0000461211       -0.0000000000      -81.6288112065
atom         6.0000000000        6.0000000000       11.3567800000 O         0.0000000000         0.0000000000        -0.0000922422        0.0001844844     -228.5649451047
atom         6.0000000000        6.0000000000        8.6432200000 O         0.0000000000         0.0000000000         0.0000461211       -0.0001614238      310.1941563112
energy      -551.4241815894
charge 0
end
begin
comment generated by PY
lattice        12.0000000000         0.0000000000         0.0000000000
lattice         0.0000000000        12.0000000000         0.0000000000
lattice         0.0000000000         0.0000000000        20.0000000000
atom         6.0000000000        6.0000000000       10.2100000000 C         0.0000000000         0.0000000000        -0.0000000000        0.0000230605      -56.9422262487
atom         6.0000000000        6.0000000000       11.3867800000 O         0.0000000000         0.0000000000         0.0000461211       -0.0000691816     -233.6251820467
atom         6.0000000000        6.0000000000        8.6132200000 O         0.0000000000         0.0000000000        -0.0000461211        0.0000461211      290.5672082954
energy      -533.3887046429
charge 0
end
begin
comment generated by PY
lattice        12.0000000000         0.0000000000         0.0000000000
lattice         0.0000000000        12.0000000000         0.0000000000
lattice         0.0000000000         0.0000000000        20.0000000000
atom         6.0000000000        6.0000000000       10.2400000000 C         0.0000000000         0.0000000000        -0.0000461211        0.0000691816      -30.2275145097
atom         6.0000000000        6.0000000000       11.4167800000 O         0.0000000000         0.0000000000         0.0002075449       -0.0002306055     -238.4808286472
atom         6.0000000000        6.0000000000        8.5832200000 O         0.0000000000         0.0000000000        -0.0001614238        0.0001614238      268.7079431569
energy      -516.6053500660
charge 0
end
begin
comment generated by PY
lattice        12.0000000000         0.0000000000         0.0000000000
lattice         0.0000000000        12.0000000000         0.0000000000
lattice         0.0000000000         0.0000000000        20.0000000000
atom         6.0000000000        6.0000000000       10.2700000000 C         0.0000000000         0.0000000000         0.0000461211       -0.0000230605       -2.7459849553
atom         6.0000000000        6.0000000000       11.4467800000 O         0.0000000000         0.0000000000        -0.0000461211        0.0000000000     -243.2153639712
atom         6.0000000000        6.0000000000        8.5532200000 O         0.0000000000         0.0000000000         0.0000230605        0.0000230605      245.9612489266
energy      -501.1654736155
charge 0
end
begin
comment generated by PY
lattice        12.0000000000         0.0000000000         0.0000000000
lattice         0.0000000000        12.0000000000         0.0000000000
lattice         0.0000000000         0.0000000000        20.0000000000
atom         6.0000000000        6.0000000000       10.3000000000 C         0.0000000000         0.0000000000         0.0000230605        0.0000000000       24.5091026355
atom         6.0000000000        6.0000000000       11.4767800000 O         0.0000000000         0.0000000000        -0.0001153027        0.0001153027     -247.7029779468
atom         6.0000000000        6.0000000000        8.5232200000 O         0.0000000000         0.0000000000         0.0000922422       -0.0001153027      223.1944753113
energy      -487.0941927172
charge 0
end
begin
comment generated by PY
lattice        12.0000000000         0.0000000000         0.0000000000
lattice         0.0000000000        12.0000000000         0.0000000000
lattice         0.0000000000         0.0000000000        20.0000000000
atom         6.0000000000        6.0000000000       10.3300000000 C         0.0000000000         0.0000000000         0.0000230605       -0.0000461211       50.9165911205
atom         6.0000000000        6.0000000000       11.5067800000 O         0.0000000000         0.0000000000        -0.0000000000        0.0000000000     -251.9891186564
atom         6.0000000000        6.0000000000        8.4932200000 O         0.0000000000         0.0000000000        -0.0000000000        0.0000230605      201.0724275359
energy      -474.3724573160
charge 0
end
begin
comment generated by PY
lattice        12.0000000000         0.0000000000         0.0000000000
lattice         0.0000000000        12.0000000000         0.0000000000
lattice         0.0000000000         0.0000000000        20.0000000000
atom         6.0000000000        6.0000000000       10.3600000000 C         0.0000000000         0.0000000000        -0.0000922422        0.0000461211       76.0172312277
atom         6.0000000000        6.0000000000       11.5367800000 O         0.0000000000         0.0000000000         0.0000922422        0.0000230605     -256.0037071048
atom         6.0000000000        6.0000000000        8.4632200000 O         0.0000000000         0.0000000000         0.0000000000       -0.0000691816      179.9865758772
energy      -462.9477009142
charge 0
end
begin
comment generated by PY
lattice        12.0000000000         0.0000000000         0.0000000000
lattice         0.0000000000        12.0000000000         0.0000000000
lattice         0.0000000000         0.0000000000        20.0000000000
atom         6.0000000000        6.0000000000       10.3900000000 C         0.0000000000         0.0000000000         0.0000230605       -0.0000000000       99.6383783352
atom         6.0000000000        6.0000000000       11.5667800000 O         0.0000000000         0.0000000000        -0.0001153027        0.0000691816     -259.7075444994
atom         6.0000000000        6.0000000000        8.4332200000 O         0.0000000000         0.0000000000         0.0000922422       -0.0000691816      160.0689431037
energy      -452.7422096825
charge 0
end
begin
comment generated by PY
lattice        12.0000000000         0.0000000000         0.0000000000
lattice         0.0000000000        12.0000000000         0.0000000000
lattice         0.0000000000         0.0000000000        20.0000000000
atom         6.0000000000        6.0000000000       10.4200000000 C         0.0000000000         0.0000000000         0.0000000000       -0.0000000000      125.1869884671
atom         6.0000000000        6.0000000000       11.5967800000 O         0.0000000000         0.0000000000         0.0000230605       -0.0000000000     -263.1870428525
atom         6.0000000000        6.0000000000        8.4032200000 O         0.0000000000         0.0000000000        -0.0000230605        0.0000000000      137.9997774459
energy      -443.5112064123
charge 0
end
begin
comment generated by PY
lattice        12.0000000000         0.0000000000         0.0000000000
lattice         0.0000000000        12.0000000000         0.0000000000
lattice         0.0000000000         0.0000000000        20.0000000000
atom         6.0000000000        6.0000000000       10.4500000000 C         0.0000000000         0.0000000000         0.0000922422       -0.0012222090      157.4651156409
atom         6.0000000000        6.0000000000       11.6267800000 O         0.0000000000         0.0000000000        -0.0000461211        0.0005765137     -266.2844029729
atom         6.0000000000        6.0000000000        8.3732200000 O         0.0000000000         0.0000000000        -0.0000461211        0.0006456953      108.8195103925
energy      -435.3548334833
charge 0
end
begin
comment generated by PY
lattice        12.0000000000         0.0000000000         0.0000000000
lattice         0.0000000000        12.0000000000         0.0000000000
lattice         0.0000000000         0.0000000000        20.0000000000
atom         6.0000000000        6.0000000000       10.4800000000 C         0.0000000000         0.0000000000         0.0000230605        0.0000000000      186.9269935969
atom         6.0000000000        6.0000000000       11.6567800000 O         0.0000000000         0.0000000000        -0.0000230605        0.0000000000     -268.5583214209
atom         6.0000000000        6.0000000000        8.3432200000 O         0.0000000000         0.0000000000        -0.0000000000       -0.0000000000       81.6310278240
energy      -428.9638181132
charge 0
end
begin
comment generated by PY
lattice        12.0000000000         0.0000000000         0.0000000000
lattice         0.0000000000        12.0000000000         0.0000000000
lattice         0.0000000000         0.0000000000        20.0000000000
atom         6.0000000000        6.0000000000       10.5100000000 C         0.0000000000         0.0000000000         0.0000230605       -0.0000230605      209.1114154028
atom         6.0000000000        6.0000000000       11.6867800000 O         0.0000000000         0.0000000000         0.0000000000        0.0000000000     -269.8548585135
atom         6.0000000000        6.0000000000        8.3132200000 O         0.0000000000         0.0000000000        -0.0000230605        0.0000230605       60.7438431107
energy      -424.2086459448
charge 0
end
begin
comment generated by PY
lattice        12.0000000000         0.0000000000         0.0000000000
lattice         0.0000000000        12.0000000000         0.0000000000
lattice         0.0000000000         0.0000000000        20.0000000000
atom         6.0000000000        6.0000000000       10.5400000000 C         0.0000000000         0.0000000000         0.0000230605        0.0000000000      225.0150438726
atom         6.0000000000        6.0000000000       11.7167800000 O         0.0000000000         0.0000000000        -0.0000230605       -0.0000000000     -270.5604691819
atom         6.0000000000        6.0000000000        8.2832200000 O         0.0000000000         0.0000000000         0.0000000000        0.0000000000       45.5459822488
energy      -420.6835286373
charge 0
end
begin
comment generated by PY
lattice        12.0000000000         0.0000000000         0.0000000000
lattice         0.0000000000        12.0000000000         0.0000000000
lattice         0.0000000000         0.0000000000        20.0000000000
atom         6.0000000000        6.0000000000       10.5700000000 C         0.0000000000         0.0000000000        -0.0000691816        0.0000000000      236.2199211775
atom         6.0000000000        6.0000000000       11.7467800000 O         0.0000000000         0.0000000000         0.0000461211       -0.0000000000     -270.7724290853
atom         6.0000000000        6.0000000000        8.2532200000 O         0.0000000000         0.0000000000         0.0000461211       -0.0000000000       34.5523779078
energy      -418.0439079591
charge 0
end
begin
comment generated by PY
lattice        12.0000000000         0.0000000000         0.0000000000
lattice         0.0000000000        12.0000000000         0.0000000000
lattice         0.0000000000         0.0000000000        20.0000000000
atom         6.0000000000        6.0000000000       10.6000000000 C         0.0000000000         0.0000000000         0.0000230605        0.0000230605      244.1638960210
atom         6.0000000000        6.0000000000       11.7767800000 O         0.0000000000         0.0000000000        -0.0000461211       -0.0000230605     -270.7871647755
atom         6.0000000000        6.0000000000        8.2232200000 O         0.0000000000         0.0000000000         0.0000230605       -0.0000000000       26.6236587545
energy      -416.0399323762
charge 0
end
begin
comment generated by PY
lattice        12.0000000000         0.0000000000         0.0000000000
lattice         0.0000000000        12.0000000000         0.0000000000
lattice         0.0000000000         0.0000000000        20.0000000000
atom         6.0000000000        6.0000000000       10.6300000000 C         0.0000000000         0.0000000000         0.0003228477        0.0000230605      249.8237527876
atom         6.0000000000        6.0000000000       11.8067800000 O         0.0000000000         0.0000000000        -0.0001383633       -0.0000230605     -270.6205104525
atom         6.0000000000        6.0000000000        8.1932200000 O         0.0000000000         0.0000000000        -0.0001844844       -0.0000230605       20.7963676649
energy      -414.4940793407
charge 0
end
begin
comment generated by PY
lattice        12.0000000000         0.0000000000         0.0000000000
lattice         0.0000000000        12.0000000000         0.0000000000
lattice         0.0000000000         0.0000000000        20.0000000000
atom         6.0000000000        6.0000000000       10.6600000000 C         0.0000000000         0.0000000000         0.0000230605       -0.0000230605      253.9077273835
atom         6.0000000000        6.0000000000       11.8367800000 O         0.0000000000         0.0000000000        -0.0000230605        0.0000000000     -270.3948316518
atom         6.0000000000        6.0000000000        8.1632200000 O         0.0000000000         0.0000000000        -0.0000230605        0.0000000000       16.4875542683
energy      -413.2856063862
charge 0
end
begin
comment generated by PY
lattice        12.0000000000         0.0000000000         0.0000000000
lattice         0.0000000000        12.0000000000         0.0000000000
lattice         0.0000000000         0.0000000000        20.0000000000
atom         6.0000000000        6.0000000000       10.6900000000 C         0.0000000000         0.0000000000        -0.0000691816        0.0000230605      256.9019531910
atom         6.0000000000        6.0000000000       11.8667800000 O         0.0000000000         0.0000000000         0.0000230605       -0.0000000000     -270.1523061157
atom         6.0000000000        6.0000000000        8.1332200000 O         0.0000000000         0.0000000000         0.0000691816       -0.0000230605       13.2498529248
energy      -412.3254904046
charge 0
end
begin
comment generated by PY
lattice        12.0000000000         0.0000000000         0.0000000000
lattice         0.0000000000        12.0000000000         0.0000000000
lattice         0.0000000000         0.0000000000        20.0000000000
atom         6.0000000000        6.0000000000       10.7200000000 C         0.0000000000         0.0000000000        -0.0000000000        0.0000000000      259.0863100507
atom         6.0000000000        6.0000000000       11.8967800000 O         0.0000000000         0.0000000000        -0.0000000000       -0.0000230605     -269.8683806283
atom         6.0000000000        6.0000000000        8.1032200000 O         0.0000000000         0.0000000000         0.0000000000        0.0000000000       10.7814636381
energy      -411.5547793196
charge 0
end
begin
comment generated by PY
lattice        12.0000000000         0.0000000000         0.0000000000
lattice         0.0000000000        12.0000000000         0.0000000000
lattice         0.0000000000         0.0000000000        20.0000000000
atom         6.0000000000        6.0000000000       10.7500000000 C         0.0000000000         0.0000000000         0.0000230605        0.0000691816      260.7212041757
atom         6.0000000000        6.0000000000       11.9267800000 O         0.0000000000         0.0000000000        -0.0000000000       -0.0000230605     -269.6379724051
atom         6.0000000000        6.0000000000        8.0732200000 O         0.0000000000         0.0000000000        -0.0000230605       -0.0000461211        8.9169112899
energy      -410.9253044747
charge 0
end
begin
comment generated by PY
lattice        12.0000000000         0.0000000000         0.0000000000
lattice         0.0000000000        12.0000000000         0.0000000000
lattice         0.0000000000         0.0000000000        20.0000000000
atom         6.0000000000        6.0000000000       10.7800000000 C         0.0000000000         0.0000000000        -0.0000000000       -0.0000230605      261.8836223191
atom         6.0000000000        6.0000000000       11.9567800000 O         0.0000000000         0.0000000000         0.0000000000        0.0000230605     -269.3509589330
atom         6.0000000000        6.0000000000        8.0432200000 O         0.0000000000         0.0000000000         0.0000000000       -0.0000000000        7.4680866139
energy      -410.4053626117
charge 0
end
begin
comment generated by PY
lattice        12.0000000000         0.0000000000         0.0000000000
lattice         0.0000000000        12.0000000000         0.0000000000
lattice         0.0000000000         0.0000000000        20.0000000000
atom         6.0000000000        6.0000000000       10.8400000000 C         0.0000000000         0.0000000000         0.0000230605        0.0000230605      263.3319625286
atom         6.0000000000        6.0000000000       12.0167800000 O         0.0000000000         0.0000000000        -0.0000000000        0.0000000000     -268.8960502444
atom         6.0000000000        6.0000000000        7.9832200000 O         0.0000000000         0.0000000000        -0.0000230605       -0.0000230605        5.5639726553
energy      -409.5906699691
charge 0
end
begin
comment generated by PY
lattice        12.0000000000         0.0000000000         0.0000000000
lattice         0.0000000000        12.0000000000         0.0000000000
lattice         0.0000000000         0.0000000000        20.0000000000
atom         6.0000000000        6.0000000000       10.8700000000 C         0.0000000000         0.0000000000         0.0000230605        0.0000000000      263.7856733793
atom         6.0000000000        6.0000000000       12.0467800000 O         0.0000000000         0.0000000000        -0.0000230605       -0.0000230605     -268.7312052880
atom         6.0000000000        6.0000000000        7.9532200000 O         0.0000000000         0.0000000000        -0.0000230605        0.0000230605        4.9451839087
energy      -409.2627751463
charge 0
end
begin
comment generated by PY
lattice        12.0000000000         0.0000000000         0.0000000000
lattice         0.0000000000        12.0000000000         0.0000000000
lattice         0.0000000000         0.0000000000        20.0000000000
atom         6.0000000000        6.0000000000       10.9000000000 C         0.0000000000         0.0000000000        -0.0002306055        0.0003689688      264.1281920607
atom         6.0000000000        6.0000000000       12.0767800000 O         0.0000000000         0.0000000000         0.0000461211       -0.0000922422     -268.5058263930
atom         6.0000000000        6.0000000000        7.9232200000 O         0.0000000000         0.0000000000         0.0001844844       -0.0002767266        4.3777593324
energy      -408.9719898808
charge 0
end
begin
comment generated by PY
lattice        12.0000000000         0.0000000000         0.0000000000
lattice         0.0000000000        12.0000000000         0.0000000000
lattice         0.0000000000         0.0000000000        20.0000000000
atom         6.0000000000        6.0000000000       10.9300000000 C         0.0000000000         0.0000000000        -0.0000230605        0.0000000000      264.4276436892
atom         6.0000000000        6.0000000000       12.1067800000 O         0.0000000000         0.0000000000         0.0000000000       -0.0000000000     -268.3432644309
atom         6.0000000000        6.0000000000        7.8932200000 O         0.0000000000         0.0000000000         0.0000230605       -0.0000000000        3.9154014416
energy      -408.7169503168
charge 0
end
begin
comment generated by PY
lattice        12.0000000000         0.0000000000         0.0000000000
lattice         0.0000000000        12.0000000000         0.0000000000
lattice         0.0000000000         0.0000000000        20.0000000000
atom         6.0000000000        6.0000000000       10.9600000000 C         0.0000000000         0.0000000000         0.0000000000        0.0000230605      264.7058415331
atom         6.0000000000        6.0000000000       12.1367800000 O         0.0000000000         0.0000000000         0.0000000000       -0.0000000000     -268.1781196873
atom         6.0000000000        6.0000000000        7.8632200000 O         0.0000000000         0.0000000000        -0.0000230605       -0.0000000000        3.4724797936
energy      -408.4887320325
charge 0
end
begin
comment generated by PY
lattice        12.0000000000         0.0000000000         0.0000000000
lattice         0.0000000000        12.0000000000         0.0000000000
lattice         0.0000000000         0.0000000000        20.0000000000
atom         6.0000000000        6.0000000000       10.9900000000 C         0.0000000000         0.0000000000        -0.0000000000       -0.0000230605      264.9358991222