begin
comment generated by PY
lattice        12.0000000000         0.0000000000         0.0000000000
lattice         0.0000000000        12.0000000000         0.0000000000
lattice         0.0000000000         0.0000000000        20.0000000000
atom         0.0000000000        0.0000000000        0.0000000000 C         0.0000000000         0.0000000000        -0.0000000000       -0.0000230605   -22451.9441665355
atom         0.0000000000        0.0000000000        0.5000000000 O         0.0000000000         0.0000000000         0.0000000000        0.0000230605    22451.9441665355
energy      2878.1816687253
charge 0
end
begin
comment generated by PY
lattice        12.0000000000         0.0000000000         0.0000000000
lattice         0.0000000000        12.0000000000         0.0000000000
lattice         0.0000000000         0.0000000000        20.0000000000
atom         0.0000000000        0.0000000000        0.0000000000 C         0.0000000000         0.0000000000        -0.0000230605       -0.0000000000   -15570.7940259567
atom         0.0000000000        0.0000000000        0.5600000000 O         0.0000000000         0.0000000000         0.0000230605        0.0000000000    15570.7940259567
energy      1749.0879326311
charge 0
end
begin
comment generated by PY
lattice        12.0000000000         0.0000000000         0.0000000000
lattice         0.0000000000        12.0000000000         0.0000000000
lattice         0.0000000000         0.0000000000        20.0000000000
atom         0.0000000000        0.0000000000        0.0000000000 C         0.0000000000         0.0000000000        -0.0000230605        0.0000000000   -10657.0664440409
atom         0.0000000000        0.0000000000        0.6200000000 O         0.0000000000         0.0000000000         0.0000230605       -0.0000000000    10657.0664440409
energy       970.4955016072
charge 0
end
begin
comment generated by PY
lattice        12.0000000000         0.0000000000         0.0000000000
lattice         0.0000000000        12.0000000000         0.0000000000
lattice         0.0000000000         0.0000000000        20.0000000000
atom         0.0000000000        0.0000000000        0.0000000000 C         0.0000000000         0.0000000000        -0.0000000000       -0.0000000000    -7157.0763018468
atom         0.0000000000        0.0000000000        0.6800000000 O         0.0000000000         0.0000000000         0.0000000000        0.0000000000     7157.0763018468
energy       442.0500855008
charge 0
end
begin
comment generated by PY
lattice        12.0000000000         0.0000000000         0.0000000000
lattice         0.0000000000        12.0000000000         0.0000000000
lattice         0.0000000000         0.0000000000        20.0000000000
atom         0.0000000000        0.0000000000        0.0000000000 C         0.0000000000         0.0000000000         0.0000000000       -0.0000000000    -4687.4064204561
atom         0.0000000000        0.0000000000        0.7400000000 O         0.0000000000         0.0000000000        -0.0000000000        0.0000000000     4687.4064204561
energy        91.0854125087
charge 0
end
begin
comment generated by PY
lattice        12.0000000000         0.0000000000         0.0000000000
lattice         0.0000000000        12.0000000000         0.0000000000
lattice         0.0000000000         0.0000000000        20.0000000000
atom         0.0000000000        0.0000000000        0.0000000000 C         0.0000000000         0.0000000000        -0.0000000000        0.0000000000    -2969.7503262136
atom         0.0000000000        0.0000000000        0.8000000000 O         0.0000000000         0.0000000000         0.0000000000       -0.0000000000     2969.7503262136
energy      -135.4531013039
charge 0
end
begin
comment generated by PY
lattice        12.0000000000         0.0000000000         0.0000000000
lattice         0.0000000000        12.0000000000         0.0000000000
lattice         0.0000000000         0.0000000000        20.0000000000
atom         0.0000000000        0.0000000000        0.0000000000 C         0.0000000000         0.0000000000        -0.0000230605        0.0000230605    -1794.5865328235
atom         0.0000000000        0.0000000000        0.8600000000 O         0.0000000000         0.0000000000         0.0000230605       -0.0000230605     1794.5865328235
energy      -276.1168703987
charge 0
end
begin
comment generated by PY
lattice        12.0000000000         0.0000000000         0.0000000000
lattice         0.0000000000        12.0000000000         0.0000000000
lattice         0.0000000000         0.0000000000        20.0000000000
atom         0.0000000000        0.0000000000        0.0000000000 C         0.0000000000         0.0000000000         0.0000691816       -0.0000230605    -1002.5057287706
atom         0.0000000000        0.0000000000        0.9200000000 O         0.0000000000         0.0000000000        -0.0000691816        0.0000230605     1002.5057287706
energy      -358.4510555247
charge 0
end
begin
comment generated by PY
lattice        12.0000000000         0.0000000000         0.0000000000
lattice         0.0000000000        12.0000000000         0.0000000000
lattice         0.0000000000         0.0000000000        20.0000000000
atom         0.0000000000        0.0000000000        0.0000000000 C         0.0000000000         0.0000000000         0.0000000000       -0.0000000000     -475.0039743852
atom         0.0000000000        0.0000000000        0.9800000000 O         0.0000000000         0.0000000000        -0.0000000000        0.0000000000      475.0039743852
energy      -401.6982988926
charge 0
end
begin
comment generated by PY
lattice        12.0000000000         0.0000000000         0.0000000000
lattice         0.0000000000        12.0000000000         0.0000000000
lattice         0.0000000000         0.0000000000        20.0000000000
atom         0.0000000000        0.0000000000        0.0000000000 C         0.0000000000         0.0000000000        -0.0000000000       -0.0000000000     -127.6624165750
atom         0.0000000000        0.0000000000        1.0400000000 O         0.0000000000         0.0000000000         0.0000000000        0.0000000000      127.6624165750
energy      -419.0470133561
charge 0
end
begin
comment generated by PY
lattice        12.0000000000         0.0000000000         0.0000000000
lattice         0.0000000000        12.0000000000         0.0000000000
lattice         0.0000000000         0.0000000000        20.0000000000
atom         0.0000000000        0.0000000000        0.0000000000 C         0.0000000000         0.0000000000        -0.0000000000       -0.0000000000       97.2374912227
atom         0.0000000000        0.0000000000        1.1000000000 O         0.0000000000         0.0000000000         0.0000000000        0.0000000000      -97.2374912227
energy      -419.4610120653
charge 0
end
begin
comment generated by PY
lattice        12.0000000000         0.0000000000         0.0000000000
lattice         0.0000000000        12.0000000000         0.0000000000
lattice         0.0000000000         0.0000000000        20.0000000000
atom         0.0000000000        0.0000000000        0.0000000000 C         0.0000000000         0.0000000000        -0.0000000000       -0.0000000000      238.4307632819
atom         0.0000000000        0.0000000000        1.1600000000 O         0.0000000000         0.0000000000         0.0000000000        0.0000000000     -238.4307632819
energy      -409.0480861961
charge 0
end
begin
comment generated by PY
lattice        12.0000000000         0.0000000000         0.0000000000
lattice         0.0000000000        12.0000000000         0.0000000000
lattice         0.0000000000         0.0000000000        20.0000000000
atom         0.0000000000        0.0000000000        0.0000000000 C         0.0000000000         0.0000000000        -0.0000000000        0.0000000000      322.1153298290
atom         0.0000000000        0.0000000000        1.2200000000 O         0.0000000000         0.0000000000         0.0000000000       -0.0000000000     -322.1153298290
energy      -391.9960555501
charge 0
end
begin
comment generated by PY
lattice        12.0000000000         0.0000000000         0.0000000000
lattice         0.0000000000        12.0000000000         0.0000000000
lattice         0.0000000000         0.0000000000        20.0000000000
atom         0.0000000000        0.0000000000        0.0000000000 C         0.0000000000         0.0000000000        -0.0000000000       -0.0000000000      366.5262351035
atom         0.0000000000        0.0000000000        1.2800000000 O         0.0000000000         0.0000000000         0.0000000000        0.0000000000     -366.5262351035
energy      -371.1776222711
charge 0
end
begin
comment generated by PY
lattice        12.0000000000         0.0000000000         0.0000000000
lattice         0.0000000000        12.0000000000         0.0000000000
lattice         0.0000000000         0.0000000000        20.0000000000
atom         0.0000000000        0.0000000000        0.0000000000 C         0.0000000000         0.0000000000        -0.0000000000        0.0000000000      384.6846054614
atom         0.0000000000        0.0000000000        1.3400000000 O         0.0000000000         0.0000000000         0.0000000000       -0.0000000000     -384.6846054614
energy      -348.5373956707
charge 0
end
begin
comment generated by PY
lattice        12.0000000000         0.0000000000         0.0000000000
lattice         0.0000000000        12.0000000000         0.0000000000
lattice         0.0000000000         0.0000000000        20.0000000000
atom         0.0000000000        0.0000000000        0.0000000000 C         0.0000000000         0.0000000000        -0.0000000000       -0.0000000000      385.9134359890
atom         0.0000000000        0.0000000000        1.4000000000 O         0.0000000000         0.0000000000         0.0000000000        0.0000000000     -385.9134359890
energy      -325.3546155498
charge 0
end
begin
comment generated by PY
lattice        12.0000000000         0.0000000000         0.0000000000
lattice         0.0000000000        12.0000000000         0.0000000000
lattice         0.0000000000         0.0000000000        20.0000000000
atom         0.0000000000        0.0000000000        0.0000000000 C         0.0000000000         0.0000000000         0.0000000000       -0.0000000000      376.6642694736
atom         0.0000000000        0.0000000000        1.4600000000 O         0.0000000000         0.0000000000        -0.0000000000        0.0000000000     -376.6642694736
energy      -302.4384143336
charge 0
end
begin
comment generated by PY
lattice        12.0000000000         0.0000000000         0.0000000000
lattice         0.0000000000        12.0000000000         0.0000000000
lattice         0.0000000000         0.0000000000        20.0000000000
atom         0.0000000000        0.0000000000        0.0000000000 C         0.0000000000         0.0000000000         0.0000000000        0.0000000000      361.1625911102
atom         0.0000000000        0.0000000000        1.5200000000 O         0.0000000000         0.0000000000        -0.0000000000       -0.0000000000     -361.1625911102
energy      -280.2813669670
charge 0
end
begin
comment generated by PY
lattice        12.0000000000         0.0000000000         0.0000000000
lattice         0.0000000000        12.0000000000         0.0000000000
lattice         0.0000000000         0.0000000000        20.0000000000
atom         0.0000000000        0.0000000000        0.0000000000 C         0.0000000000         0.0000000000        -0.0000000000        0.0000000000      342.1019146423
atom         0.0000000000        0.0000000000        1.5800000000 O         0.0000000000         0.0000000000         0.0000000000       -0.0000000000     -342.1019146423
energy      -259.1718593145
charge 0
end
begin
comment generated by PY
lattice        12.0000000000         0.0000000000         0.0000000000
lattice         0.0000000000        12.0000000000         0.0000000000
lattice         0.0000000000         0.0000000000        20.0000000000
atom         0.0000000000        0.0000000000        0.0000000000 C         0.0000000000         0.0000000000         0.0000000000        0.0000000000      321.2634766672
atom         0.0000000000        0.0000000000        1.6400000000 O         0.0000000000         0.0000000000        -0.0000000000       -0.0000000000     -321.2634766672
energy      -239.2664030252
charge 0
end
begin
comment generated by PY
lattice        12.0000000000         0.0000000000         0.0000000000
lattice         0.0000000000        12.0000000000         0.0000000000
lattice         0.0000000000         0.0000000000        20.0000000000
atom         0.0000000000        0.0000000000        0.0000000000 C         0.0000000000         0.0000000000        -0.0000000000       -0.0000000000      299.8538706836
atom         0.0000000000        0.0000000000        1.7000000000 O         0.0000000000         0.0000000000         0.0000000000        0.0000000000     -299.8538706836
energy      -220.6329623596
charge 0
end
begin
comment generated by PY
lattice        12.0000000000         0.0000000000         0.0000000000
lattice         0.0000000000        12.0000000000         0.0000000000
lattice         0.0000000000         0.0000000000        20.0000000000
atom         0.0000000000        0.0000000000        0.0000000000 C         0.0000000000         0.0000000000        -0.0000000000        0.0000000000      278.6678586996
atom         0.0000000000        0.0000000000        1.7600000000 O         0.0000000000         0.0000000000         0.0000000000       -0.0000000000     -278.6678586996
energy      -203.2802839226
charge 0
end
begin
comment generated by PY
lattice        12.0000000000         0.0000000000         0.0000000000
lattice         0.0000000000        12.0000000000         0.0000000000
lattice         0.0000000000         0.0000000000        20.0000000000
atom         0.0000000000        0.0000000000        0.0000000000 C         0.0000000000         0.0000000000        -0.0000000000        0.0000000000      258.1930635661
atom         0.0000000000        0.0000000000        1.8200000000 O         0.0000000000         0.0000000000         0.0000000000       -0.0000000000     -258.1930635661
energy      -187.1790477038
charge 0
end
begin
comment generated by PY
lattice        12.0000000000         0.0000000000         0.0000000000
lattice         0.0000000000        12.0000000000         0.0000000000
lattice         0.0000000000         0.0000000000        20.0000000000
atom         0.0000000000        0.0000000000        0.0000000000 C         0.0000000000         0.0000000000         0.0000000000        0.0000000000      238.6925843952
atom         0.0000000000        0.0000000000        1.8800000000 O         0.0000000000         0.0000000000        -0.0000000000       -0.0000000000     -238.6925843952
energy      -172.2778377637
charge 0
end
begin
comment generated by PY
lattice        12.0000000000         0.0000000000         0.0000000000
lattice         0.0000000000        12.0000000000         0.0000000000
lattice         0.0000000000         0.0000000000        20.0000000000
atom         0.0000000000        0.0000000000        0.0000000000 C         0.0000000000         0.0000000000        -0.0000000000        0.0000000000      220.2772970075
atom         0.0000000000        0.0000000000        1.9400000000 O         0.0000000000         0.0000000000         0.0000000000       -0.0000000000     -220.2772970075
energy      -158.5145051549
charge 0
end
begin
comment generated by PY
lattice        12.0000000000         0.0000000000         0.0000000000
lattice         0.0000000000        12.0000000000         0.0000000000
lattice         0.0000000000         0.0000000000        20.0000000000
atom         0.0000000000        0.0000000000        0.0000000000 C         0.0000000000         0.0000000000         0.0000000000        0.0000000000      202.9736039057
atom         0.0000000000        0.0000000000        2.0000000000 O         0.0000000000         0.0000000000        -0.0000000000       -0.0000000000     -202.9736039057
energy      -145.8226679530
charge 0
end
begin
comment generated by PY
lattice        12.0000000000         0.0000000000         0.0000000000
lattice         0.0000000000        12.0000000000         0.0000000000
lattice         0.0000000000         0.0000000000        20.0000000000
atom         0.0000000000        0.0000000000        0.0000000000 C         0.0000000000         0.0000000000        -0.0000000000        0.0000000000      186.7691691839
atom         0.0000000000        0.0000000000        2.0600000000 O         0.0000000000         0.0000000000         0.0000000000       -0.0000000000     -186.7691691839
energy      -134.1361434638
charge 0
end
begin
comment generated by PY
lattice        12.0000000000         0.0000000000         0.0000000000
lattice         0.0000000000        12.0000000000         0.0000000000
lattice         0.0000000000         0.0000000000        20.0000000000
atom         0.0000000000        0.0000000000        0.0000000000 C         0.0000000000         0.0000000000        -0.0000000000       -0.0000000000      171.6412737531
atom         0.0000000000        0.0000000000        2.1200000000 O         0.0000000000         0.0000000000         0.0000000000        0.0000000000     -171.6412737531
energy      -123.3893436312
charge 0
end
begin
comment generated by PY
lattice        12.0000000000         0.0000000000         0.0000000000
lattice         0.0000000000        12.0000000000         0.0000000000
lattice         0.0000000000         0.0000000000        20.0000000000
atom         0.0000000000        0.0000000000        0.0000000000 C         0.0000000000         0.0000000000         0.0000230605       -0.0000230605      157.5613957814
atom         0.0000000000        0.0000000000        2.1800000000 O         0.0000000000         0.0000000000        -0.0000230605        0.0000230605     -157.5613957814
energy      -113.5179880220
charge 0
end
begin
comment generated by PY
lattice        12.0000000000         0.0000000000         0.0000000000
lattice         0.0000000000        12.0000000000         0.0000000000
lattice         0.0000000000         0.0000000000        20.0000000000
atom         0.0000000000        0.0000000000        0.0000000000 C         0.0000000000         0.0000000000        -0.0000000000        0.0000230605      144.4870608595
atom         0.0000000000        0.0000000000        2.2400000000 O         0.0000000000         0.0000000000         0.0000000000       -0.0000230605     -144.4870608595
energy      -104.4573091230
charge 0
end
begin
comment generated by PY
lattice        12.0000000000         0.0000000000         0.0000000000
lattice         0.0000000000        12.0000000000         0.0000000000
lattice         0.0000000000         0.0000000000        20.0000000000
atom         0.0000000000        0.0000000000        0.0000000000 C         0.0000000000         0.0000000000        -0.0000000000        0.0000230605      132.3482636096
atom         0.0000000000        0.0000000000        2.3000000000 O         0.0000000000         0.0000000000         0.0000000000       -0.0000230605     -132.3482636096
energy       -96.1397443154
charge 0
end
begin
comment generated by PY
lattice        12.0000000000         0.0000000000         0.0000000000
lattice         0.0000000000        12.0000000000         0.0000000000
lattice         0.0000000000         0.0000000000        20.0000000000
atom         0.0000000000        0.0000000000        0.0000000000 C         0.0000000000         0.0000000000         0.0000000000       -0.0000000000      119.0383592230
atom         0.0000000000        0.0000000000        2.3600000000 O         0.0000000000         0.0000000000        -0.0000000000        0.0000000000     -119.0383592230
energy       -88.5040178724
charge 0
end
begin
comment generated by PY
lattice        12.0000000000         0.0000000000         0.0000000000
lattice         0.0000000000        12.0000000000         0.0000000000
lattice         0.0000000000         0.0000000000        20.0000000000
atom         0.0000000000        0.0000000000        0.0000000000 C         0.0000000000         0.0000000000        -0.0000000000        0.0000000000      101.1805570741
atom         0.0000000000        0.0000000000        2.4200000000 O         0.0000000000         0.0000000000         0.0000000000       -0.0000000000     -101.1805570741
energy       -81.7423494658
charge 0
end
begin
comment generated by PY
lattice        12.0000000000         0.0000000000         0.0000000000
lattice         0.0000000000        12.0000000000         0.0000000000
lattice         0.0000000000         0.0000000000        20.0000000000
atom         0.0000000000        0.0000000000        0.0000000000 C         0.0000000000         0.0000000000         0.0000000000       -0.0000000000      100.3848237144
atom         0.0000000000        0.0000000000        2.4800000000 O         0.0000000000         0.0000000000        -0.0000000000        0.0000000000     -100.3848237144
energy       -74.9633680599
charge 0
end
begin
comment generated by PY
lattice        12.0000000000         0.0000000000         0.0000000000
lattice         0.0000000000        12.0000000000         0.0000000000
lattice         0.0000000000         0.0000000000        20.0000000000
atom         0.0000000000        0.0000000000        0.0000000000 C         0.0000000000         0.0000000000        -0.0000461211        0.0000461211       71.6767637694
atom         0.0000000000        0.0000000000        2.5400000000 O         0.0000000000         0.0000000000         0.0000461211       -0.0000461211      -71.6767637694
energy       -69.7271768155
charge 0
end
begin
comment generated by PY
lattice        12.0000000000         0.0000000000         0.0000000000
lattice         0.0000000000        12.0000000000         0.0000000000
lattice         0.0000000000         0.0000000000        20.0000000000
atom         0.0000000000        0.0000000000        0.0000000000 C         0.0000000000         0.0000000000        -0.0000000000        0.0000000000       61.3689812369
atom         0.0000000000        0.0000000000        2.6000000000 O         0.0000000000         0.0000000000         0.0000000000       -0.0000000000      -61.3689812369
energy       -65.7963784658
charge 0
end
begin
comment generated by PY
lattice        12.0000000000         0.0000000000         0.0000000000
lattice         0.0000000000        12.0000000000         0.0000000000
lattice         0.0000000000         0.0000000000        20.0000000000
atom         0.0000000000        0.0000000000        0.0000000000 C         0.0000000000         0.0000000000        -0.0000230605       -0.0000000000       52.3495189283
atom         0.0000000000        0.0000000000        2.6600000000 O         0.0000000000         0.0000000000         0.0000230605        0.0000000000      -52.3495189283
energy       -62.3507526041
charge 0
end
begin
comment generated by PY
lattice        12.0000000000         0.0000000000         0.0000000000
lattice         0.0000000000        12.0000000000         0.0000000000
lattice         0.0000000000         0.0000000000        20.0000000000
atom         0.0000000000        0.0000000000        0.0000000000 C         0.0000000000         0.0000000000         0.0000230605        0.0000461211       44.4518128559
atom         0.0000000000        0.0000000000        2.7200000000 O         0.0000000000         0.0000000000        -0.0000230605       -0.0000461211      -44.4518128559
energy       -59.3223952776
charge 0
end
begin
comment generated by PY
lattice        12.0000000000         0.0000000000         0.0000000000
lattice         0.0000000000        12.0000000000         0.0000000000
lattice         0.0000000000         0.0000000000        20.0000000000
atom         0.0000000000        0.0000000000        0.0000000000 C         0.0000000000         0.0000000000        -0.0000000000        0.0000461211       36.8660022636
atom         0.0000000000        0.0000000000        2.7800000000 O         0.0000000000         0.0000000000         0.0000000000       -0.0000461211      -36.8660022636
energy       -59.6367484987
charge 0
end
begin
comment generated by PY
lattice        12.0000000000         0.0000000000         0.0000000000
lattice         0.0000000000        12.0000000000         0.0000000000
lattice         0.0000000000         0.0000000000        20.0000000000
atom         0.0000000000        0.0000000000        0.0000000000 C         0.0000000000         0.0000000000         0.0000922422        0.0001844844       30.9584426197
atom         0.0000000000        0.0000000000        2.8400000000 O         0.0000000000         0.0000000000        -0.0000922422       -0.0001844844      -30.9584426197
energy       -57.3962796043
charge 0
end
begin
comment generated by PY
lattice        12.0000000000         0.0000000000         0.0000000000
lattice         0.0000000000        12.0000000000         0.0000000000
lattice         0.0000000000         0.0000000000        20.0000000000
atom         0.0000000000        0.0000000000        0.0000000000 C         0.0000000000         0.0000000000         0.0000230605        0.0000230605       26.2649221267
atom         0.0000000000        0.0000000000        2.9000000000 O         0.0000000000         0.0000000000        -0.0000230605       -0.0000230605      -26.2649221267
energy       -83.1781836465
charge 0
end
begin
comment generated by PY
lattice        12.0000000000         0.0000000000         0.0000000000
lattice         0.0000000000        12.0000000000         0.0000000000
lattice         0.0000000000         0.0000000000        20.0000000000
atom         0.0000000000        0.0000000000        0.0000000000 C         0.0000000000         0.0000000000         0.0000000000       -0.0000000000       42.9676372311
atom         0.0000000000        0.0000000000        2.9600000000 O         0.0000000000         0.0000000000        -0.0000000000        0.0000000000      -42.9676372311
energy       -39.7067476325
charge 0
end
begin
comment generated by PY
lattice        12.0000000000         0.0000000000         0.0000000000
lattice         0.0000000000        12.0000000000         0.0000000000
lattice         0.0000000000         0.0000000000        20.0000000000
atom         0.0000000000        0.0000000000        0.0000000000 C         0.0000000000         0.0000000000        -0.0000230605       -0.0000230605       38.6325249114
atom         0.0000000000        0.0000000000        3.0200000000 O         0.0000000000         0.0000000000         0.0000230605        0.0000230605      -38.6325249114
energy       -37.0034496154
charge 0
end
begin
comment generated by PY
lattice        12.0000000000         0.0000000000         0.0000000000
lattice         0.0000000000        12.0000000000         0.0000000000
lattice         0.0000000000         0.0000000000        20.0000000000
atom         0.0000000000        0.0000000000        0.0000000000 C         0.0000000000         0.0000000000         0.0094317641       -0.0389492656       14.2546560705
atom         0.0000000000        0.0000000000        3.0800000000 O         0.0000000000         0.0000000000        -0.0094317641        0.0389492656      -14.2546560705
energy       -53.3963423228
charge 0
end
begin
comment generated by PY
lattice        12.0000000000         0.0000000000         0.0000000000
lattice         0.0000000000        12.0000000000         0.0000000000
lattice         0.0000000000         0.0000000000        20.0000000000
atom         0.0000000000        0.0000000000        0.0000000000 C         0.0000000000         0.0000000000        -0.0001614238       -0.0001844844       13.4702240735
atom         0.0000000000        0.0000000000        3.1400000000 O         0.0000000000         0.0000000000         0.0001614238        0.0001844844      -13.4702240735
energy       -47.0531440773
charge 0
end
begin
comment generated by PY
lattice        12.0000000000         0.0000000000         0.0000000000
lattice         0.0000000000        12.0000000000         0.0000000000
lattice         0.0000000000         0.0000000000        20.0000000000
atom         0.0000000000        0.0000000000        0.0000000000 C         0.0000000000         0.0000000000         0.0000230605       -0.0000000000       17.0772652563
atom         0.0000000000        0.0000000000        3.2000000000 O         0.0000000000         0.0000000000        -0.0000230605        0.0000000000      -17.0772652563
energy       -46.9090886986
charge 0
end
begin
comment generated by PY
lattice        12.0000000000         0.0000000000         0.0000000000
lattice         0.0000000000        12.0000000000         0.0000000000
lattice         0.0000000000         0.0000000000        20.0000000000
atom         0.0000000000        0.0000000000        0.0000000000 C         0.0000000000         0.0000000000        -0.0050733206        0.0043584436        7.9141764448
atom         0.0000000000        0.0000000000        3.2600000000 O         0.0000000000         0.0000000000         0.0050733206       -0.0043584436       -7.9141764448
energy       -70.1263036114
charge 0
end
begin
comment generated by PY
lattice        12.0000000000         0.0000000000         0.0000000000
lattice         0.0000000000        12.0000000000         0.0000000000
lattice         0.0000000000         0.0000000000        20.0000000000
atom         0.0000000000        0.0000000000        0.0000000000 C         0.0000000000         0.0000000000         0.0004842715        0.0001153027        9.8720795093