begin
comment generated by PY
lattice        12.0000000000         0.0000000000         0.0000000000
lattice         0.0000000000        12.0000000000         0.0000000000
lattice         0.0000000000         0.0000000000        20.0000000000
atom         0.0000000000        0.0000000000        0.0000000000 H         0.0000000000         0.0000000000         0.0000000000       -0.0000000000    -2518.1980340357
atom         0.0000000000        0.0000000000        0.3000000000 H         0.0000000000         0.0000000000        -0.0000000000        0.0000000000     2518.1980340357
energy        22.4444103193
charge 0
end
begin
comment generated by PY
lattice        12.0000000000         0.0000000000         0.0000000000
lattice         0.0000000000        12.0000000000         0.0000000000
lattice         0.0000000000         0.0000000000        20.0000000000
atom         0.0000000000        0.0000000000        0.0000000000 H         0.0000000000         0.0000000000         0.0000000000        0.0000000000    -1395.4801123371
atom         0.0000000000        0.0000000000        0.3600000000 H         0.0000000000         0.0000000000        -0.0000000000       -0.0000000000     1395.4801123371
energy       -91.6824767770
charge 0
end
begin
comment generated by PY
lattice        12.0000000000         0.0000000000         0.0000000000
lattice         0.0000000000        12.0000000000         0.0000000000
lattice         0.0000000000         0.0000000000        20.0000000000
atom         0.0000000000        0.0000000000        0.0000000000 H         0.0000000000         0.0000000000         0.0000000000       -0.0000000000     -756.4196939109
atom         0.0000000000        0.0000000000        0.4200000000 H         0.0000000000         0.0000000000        -0.0000000000        0.0000000000      756.4196939109
energy      -154.5196332246
charge 0
end
begin
comment generated by PY
lattice        12.0000000000         0.0000000000         0.0000000000
lattice         0.0000000000        12.0000000000         0.0000000000
lattice         0.0000000000         0.0000000000        20.0000000000
atom         0.0000000000        0.0000000000        0.0000000000 H         0.0000000000         0.0000000000        -0.0000000000       -0.0000000000     -380.1512838428
atom         0.0000000000        0.0000000000        0.4800000000 H         0.0000000000         0.0000000000         0.0000000000        0.0000000000      380.1512838428
energy      -187.6423317247
charge 0
end
begin
comment generated by PY
lattice        12.0000000000         0.0000000000         0.0000000000
lattice         0.0000000000        12.0000000000         0.0000000000
lattice         0.0000000000         0.0000000000        20.0000000000
atom         0.0000000000        0.0000000000        0.0000000000 H         0.0000000000         0.0000000000        -0.0000000000       -0.0000000000     -155.6346887459
atom         0.0000000000        0.0000000000        0.5400000000 H         0.0000000000         0.0000000000         0.0000000000        0.0000000000      155.6346887459
energy      -203.1424565688
charge 0
end
begin
comment generated by PY
lattice        12.0000000000         0.0000000000         0.0000000000
lattice         0.0000000000        12.0000000000         0.0000000000
lattice         0.0000000000         0.0000000000        20.0000000000
atom         0.0000000000        0.0000000000        0.0000000000 H         0.0000000000         0.0000000000        -0.0000000000       -0.0000000000      -21.2111752975
atom         0.0000000000        0.0000000000        0.6000000000 H         0.0000000000         0.0000000000         0.0000000000        0.0000000000       21.2111752975
energy      -208.1044372672
charge 0
end
begin
comment generated by PY
lattice        12.0000000000         0.0000000000         0.0000000000
lattice         0.0000000000        12.0000000000         0.0000000000
lattice         0.0000000000         0.0000000000        20.0000000000
atom         0.0000000000        0.0000000000        0.0000000000 H         0.0000000000         0.0000000000        -0.0000000000        0.0000000000       59.1241538030
atom         0.0000000000        0.0000000000        0.6600000000 H         0.0000000000         0.0000000000         0.0000000000       -0.0000000000      -59.1241538030
energy      -206.7601555845
charge 0
end
begin
comment generated by PY
lattice        12.0000000000         0.0000000000         0.0000000000
lattice         0.0000000000        12.0000000000         0.0000000000
lattice         0.0000000000         0.0000000000        20.0000000000
atom         0.0000000000        0.0000000000        0.0000000000 H         0.0000000000         0.0000000000        -0.0000000000        0.0000000000      106.7515341689
atom         0.0000000000        0.0000000000        0.7200000000 H         0.0000000000         0.0000000000         0.0000000000       -0.0000000000     -106.7515341689
energy      -201.6581516206
charge 0
end
begin
comment generated by PY
lattice        12.0000000000         0.0000000000         0.0000000000
lattice         0.0000000000        12.0000000000         0.0000000000
lattice         0.0000000000         0.0000000000        20.0000000000
atom         0.0000000000        0.0000000000        0.0000000000 H         0.0000000000         0.0000000000         0.0000000000       -0.0000000000      134.3595544464
atom         0.0000000000        0.0000000000        0.7800000000 H         0.0000000000         0.0000000000        -0.0000000000        0.0000000000     -134.3595544464
energy      -194.3471381168
charge 0
end
begin
comment generated by PY
lattice        12.0000000000         0.0000000000         0.0000000000
lattice         0.0000000000        12.0000000000         0.0000000000
lattice         0.0000000000         0.0000000000        20.0000000000
atom         0.0000000000        0.0000000000        0.0000000000 H         0.0000000000         0.0000000000         0.0000000000       -0.0000000000      149.4680481665
atom         0.0000000000        0.0000000000        0.8400000000 H         0.0000000000         0.0000000000        -0.0000000000        0.0000000000     -149.4680481665
energy      -185.7831738561
charge 0
end
begin
comment generated by PY
lattice        12.0000000000         0.0000000000         0.0000000000
lattice         0.0000000000        12.0000000000         0.0000000000
lattice         0.0000000000         0.0000000000        20.0000000000
atom         0.0000000000        0.0000000000        0.0000000000 H         0.0000000000         0.0000000000         0.0000000000        0.0000000000      156.5806042279
atom         0.0000000000        0.0000000000        0.9000000000 H         0.0000000000         0.0000000000        -0.0000000000       -0.0000000000     -156.5806042279
energy      -176.5697872007
charge 0
end
begin
comment generated by PY
lattice        12.0000000000         0.0000000000         0.0000000000
lattice         0.0000000000        12.0000000000         0.0000000000
lattice         0.0000000000         0.0000000000        20.0000000000
atom         0.0000000000        0.0000000000        0.0000000000 H         0.0000000000         0.0000000000         0.0000000000        0.0000000000      158.4592067118
atom         0.0000000000        0.0000000000        0.9600000000 H         0.0000000000         0.0000000000        -0.0000000000       -0.0000000000     -158.4592067118
energy      -167.0974217475
charge 0
end
begin
comment generated by PY
lattice        12.0000000000         0.0000000000         0.0000000000
lattice         0.0000000000        12.0000000000         0.0000000000
lattice         0.0000000000         0.0000000000        20.0000000000
atom         0.0000000000        0.0000000000        0.0000000000 H         0.0000000000         0.0000000000        -0.0000000000        0.0000000000      156.8650064294
atom         0.0000000000        0.0000000000        1.0200000000 H         0.0000000000         0.0000000000         0.0000000000       -0.0000000000     -156.8650064294
energy      -157.6235698721
charge 0
end
begin
comment generated by PY
lattice        12.0000000000         0.0000000000         0.0000000000
lattice         0.0000000000        12.0000000000         0.0000000000
lattice         0.0000000000         0.0000000000        20.0000000000
atom         0.0000000000        0.0000000000        0.0000000000 H         0.0000000000         0.0000000000        -0.0000000000        0.0000000000      152.9740411787
atom         0.0000000000        0.0000000000        1.0800000000 H         0.0000000000         0.0000000000         0.0000000000       -0.0000000000     -152.9740411787
energy      -148.3191354373
charge 0
end
begin
comment generated by PY
lattice        12.0000000000         0.0000000000         0.0000000000
lattice         0.0000000000        12.0000000000         0.0000000000
lattice         0.0000000000         0.0000000000        20.0000000000
atom         0.0000000000        0.0000000000        0.0000000000 H         0.0000000000         0.0000000000         0.0000000000       -0.0000000000      147.6112613055
atom         0.0000000000        0.0000000000        1.1400000000 H         0.0000000000         0.0000000000        -0.0000000000        0.0000000000     -147.6112613055
energy      -139.2958189897
charge 0
end
begin
comment generated by PY
lattice        12.0000000000         0.0000000000         0.0000000000
lattice         0.0000000000        12.0000000000         0.0000000000
lattice         0.0000000000         0.0000000000        20.0000000000
atom         0.0000000000        0.0000000000        0.0000000000 H         0.0000000000         0.0000000000        -0.0000000000        0.0000000000      141.3688281851
atom         0.0000000000        0.0000000000        1.2000000000 H         0.0000000000         0.0000000000         0.0000000000       -0.0000000000     -141.3688281851
energy      -130.6231751459
charge 0
end
begin
comment generated by PY
lattice        12.0000000000         0.0000000000         0.0000000000
lattice         0.0000000000        12.0000000000         0.0000000000
lattice         0.0000000000         0.0000000000        20.0000000000
atom         0.0000000000        0.0000000000        0.0000000000 H         0.0000000000         0.0000000000        -0.0000000000        0.0000000000      134.6679449684
atom         0.0000000000        0.0000000000        1.2600000000 H         0.0000000000         0.0000000000         0.0000000000       -0.0000000000     -134.6679449684
energy      -122.3406072440
charge 0
end
begin
comment generated by PY
lattice        12.0000000000         0.0000000000         0.0000000000
lattice         0.0000000000        12.0000000000         0.0000000000
lattice         0.0000000000         0.0000000000        20.0000000000
atom         0.0000000000        0.0000000000        0.0000000000 H         0.0000000000         0.0000000000         0.0000000000       -0.0000000000      127.7949827865
atom         0.0000000000        0.0000000000        1.3200000000 H         0.0000000000         0.0000000000        -0.0000000000        0.0000000000     -127.7949827865
energy      -114.4664063615
charge 0
end
begin
comment generated by PY
lattice        12.0000000000         0.0000000000         0.0000000000
lattice         0.0000000000        12.0000000000         0.0000000000
lattice         0.0000000000         0.0000000000        20.0000000000
atom         0.0000000000        0.0000000000        0.0000000000 H         0.0000000000         0.0000000000         0.0000000000       -0.0000000000      120.9298887916
atom         0.0000000000        0.0000000000        1.3800000000 H         0.0000000000         0.0000000000        -0.0000000000        0.0000000000     -120.9298887916
energy      -107.0050582032
charge 0
end
begin
comment generated by PY
lattice        12.0000000000         0.0000000000         0.0000000000
lattice         0.0000000000        12.0000000000         0.0000000000
lattice         0.0000000000         0.0000000000        20.0000000000
atom         0.0000000000        0.0000000000        0.0000000000 H         0.0000000000         0.0000000000         0.0000000000       -0.0000000000      114.1760629532
atom         0.0000000000        0.0000000000        1.4400000000 H         0.0000000000         0.0000000000        -0.0000000000        0.0000000000     -114.1760629532
energy       -99.9526441567
charge 0
end
begin
comment generated by PY
lattice        12.0000000000         0.0000000000         0.0000000000
lattice         0.0000000000        12.0000000000         0.0000000000
lattice         0.0000000000         0.0000000000        20.0000000000
atom         0.0000000000        0.0000000000        0.0000000000 H         0.0000000000         0.0000000000         0.0000000000       -0.0000000000      107.5878137105
atom         0.0000000000        0.0000000000        1.5000000000 H         0.0000000000         0.0000000000        -0.0000000000        0.0000000000     -107.5878137105
energy       -93.3006567692
charge 0
end
begin
comment generated by PY
lattice        12.0000000000         0.0000000000         0.0000000000
lattice         0.0000000000        12.0000000000         0.0000000000
lattice         0.0000000000         0.0000000000        20.0000000000
atom         0.0000000000        0.0000000000        0.0000000000 H         0.0000000000         0.0000000000         0.0000000000       -0.0000000000      101.1948849343
atom         0.0000000000        0.0000000000        1.5600000000 H         0.0000000000         0.0000000000        -0.0000000000        0.0000000000     -101.1948849343
energy       -87.0381680319
charge 0
end
begin
comment generated by PY
lattice        12.0000000000         0.0000000000         0.0000000000
lattice         0.0000000000        12.0000000000         0.0000000000
lattice         0.0000000000         0.0000000000        20.0000000000
atom         0.0000000000        0.0000000000        0.0000000000 H         0.0000000000         0.0000000000        -0.0000000000        0.0000000000       94.0485142627
atom         0.0000000000        0.0000000000        1.6200000000 H         0.0000000000         0.0000000000         0.0000000000       -0.0000000000      -94.0485142627
energy       -81.1521215287
charge 0
end
begin
comment generated by PY
lattice        12.0000000000         0.0000000000         0.0000000000
lattice         0.0000000000        12.0000000000         0.0000000000
lattice         0.0000000000         0.0000000000        20.0000000000
atom         0.0000000000        0.0000000000        0.0000000000 H         0.0000000000         0.0000000000         0.0000000000       -0.0000000000       77.7640353204
atom         0.0000000000        0.0000000000        1.6800000000 H         0.0000000000         0.0000000000        -0.0000000000        0.0000000000      -77.7640353204
energy       -76.0033816097
charge 0
end
begin
comment generated by PY
lattice        12.0000000000         0.0000000000         0.0000000000
lattice         0.0000000000        12.0000000000         0.0000000000
lattice         0.0000000000         0.0000000000        20.0000000000
atom         0.0000000000        0.0000000000        0.0000000000 H         0.0000000000         0.0000000000         0.0000000000       -0.0000000000       64.3830468833
atom         0.0000000000        0.0000000000        1.7400000000 H         0.0000000000         0.0000000000        -0.0000000000        0.0000000000      -64.3830468833
energy       -71.7521659510
charge 0
end
begin
comment generated by PY
lattice        12.0000000000         0.0000000000         0.0000000000
lattice         0.0000000000        12.0000000000         0.0000000000
lattice         0.0000000000         0.0000000000        20.0000000000
atom         0.0000000000        0.0000000000        0.0000000000 H         0.0000000000         0.0000000000         0.0000000000       -0.0000000000       53.2768994284
atom         0.0000000000        0.0000000000        1.8000000000 H         0.0000000000         0.0000000000        -0.0000000000        0.0000000000      -53.2768994284
energy       -68.2322267409
charge 0
end
begin
comment generated by PY
lattice        12.0000000000         0.0000000000         0.0000000000
lattice         0.0000000000        12.0000000000         0.0000000000
lattice         0.0000000000         0.0000000000        20.0000000000
atom         0.0000000000        0.0000000000        0.0000000000 H         0.0000000000         0.0000000000         0.0000000000       -0.0000000000       43.9768852584
atom         0.0000000000        0.0000000000        1.8600000000 H         0.0000000000         0.0000000000        -0.0000000000        0.0000000000      -43.9768852584
energy       -65.3229365320
charge 0
end
begin
comment generated by PY
lattice        12.0000000000         0.0000000000         0.0000000000
lattice         0.0000000000        12.0000000000         0.0000000000
lattice         0.0000000000         0.0000000000        20.0000000000
atom         0.0000000000        0.0000000000        0.0000000000 H         0.0000000000         0.0000000000         0.0000000000       -0.0000000000       36.2457939256
atom         0.0000000000        0.0000000000        1.9200000000 H         0.0000000000         0.0000000000        -0.0000000000        0.0000000000      -36.2457939256
energy       -62.9237024753
charge 0
end
begin
comment generated by PY
lattice        12.0000000000         0.0000000000         0.0000000000
lattice         0.0000000000        12.0000000000         0.0000000000
lattice         0.0000000000         0.0000000000        20.0000000000
atom         0.0000000000        0.0000000000        0.0000000000 H         0.0000000000         0.0000000000         0.0000000000       -0.0000000000       29.9151741242
atom         0.0000000000        0.0000000000        1.9800000000 H         0.0000000000         0.0000000000        -0.0000000000        0.0000000000      -29.9151741242
energy       -60.9454903075
charge 0
end
begin
comment generated by PY
lattice        12.0000000000         0.0000000000         0.0000000000
lattice         0.0000000000        12.0000000000         0.0000000000
lattice         0.0000000000         0.0000000000        20.0000000000
atom         0.0000000000        0.0000000000        0.0000000000 H         0.0000000000         0.0000000000         0.0000000000       -0.0000000000       24.7825438257
atom         0.0000000000        0.0000000000        2.0400000000 H         0.0000000000         0.0000000000        -0.0000000000        0.0000000000      -24.7825438257
energy       -59.3099986165
charge 0
end
begin
comment generated by PY
lattice        12.0000000000         0.0000000000         0.0000000000
lattice         0.0000000000        12.0000000000         0.0000000000
lattice         0.0000000000         0.0000000000        20.0000000000
atom         0.0000000000        0.0000000000        0.0000000000 H         0.0000000000         0.0000000000         0.0000000000        0.0000000000       20.5912910554
atom         0.0000000000        0.0000000000        2.1000000000 H         0.0000000000         0.0000000000        -0.0000000000       -0.0000000000      -20.5912910554
energy       -57.9528773072
charge 0
end
begin
comment generated by PY
lattice        12.0000000000         0.0000000000         0.0000000000
lattice         0.0000000000        12.0000000000         0.0000000000
lattice         0.0000000000         0.0000000000        20.0000000000
atom         0.0000000000        0.0000000000        0.0000000000 H         0.0000000000         0.0000000000         0.0000000000       -0.0000000000       17.1073144862
atom         0.0000000000        0.0000000000        2.1600000000 H         0.0000000000         0.0000000000        -0.0000000000        0.0000000000      -17.1073144862
energy       -56.8249971108
charge 0
end
begin
comment generated by PY
lattice        12.0000000000         0.0000000000         0.0000000000
lattice         0.0000000000        12.0000000000         0.0000000000
lattice         0.0000000000         0.0000000000        20.0000000000
atom         0.0000000000        0.0000000000        0.0000000000 H         0.0000000000         0.0000000000         0.0000000000       -0.0000000000       14.1778521071
atom         0.0000000000        0.0000000000        2.2200000000 H         0.0000000000         0.0000000000        -0.0000000000        0.0000000000      -14.1778521071
energy       -55.8889187051
charge 0
end
begin
comment generated by PY
lattice        12.0000000000         0.0000000000         0.0000000000
lattice         0.0000000000        12.0000000000         0.0000000000
lattice         0.0000000000         0.0000000000        20.0000000000
atom         0.0000000000        0.0000000000        0.0000000000 H         0.0000000000         0.0000000000         0.0000000000       -0.0000000000       11.7178252875
atom         0.0000000000        0.0000000000        2.2800000000 H         0.0000000000         0.0000000000        -0.0000000000        0.0000000000      -11.7178252875
energy       -55.1141904645
charge 0
end
begin
comment generated by PY
lattice        12.0000000000         0.0000000000         0.0000000000
lattice         0.0000000000        12.0000000000         0.0000000000
lattice         0.0000000000         0.0000000000        20.0000000000
atom         0.0000000000        0.0000000000        0.0000000000 H         0.0000000000         0.0000000000         0.0000000000        0.0000000000        9.6630848940
atom         0.0000000000        0.0000000000        2.3400000000 H         0.0000000000         0.0000000000        -0.0000000000       -0.0000000000       -9.6630848940
energy       -54.4746415948
charge 0
end
begin
comment generated by PY
lattice        12.0000000000         0.0000000000         0.0000000000
lattice         0.0000000000        12.0000000000         0.0000000000
lattice         0.0000000000         0.0000000000        20.0000000000
atom         0.0000000000        0.0000000000        0.0000000000 H         0.0000000000         0.0000000000        -0.0000000000        0.0000000000        7.9611426761
atom         0.0000000000        0.0000000000        2.4000000000 H         0.0000000000         0.0000000000         0.0000000000       -0.0000000000       -7.9611426761
energy       -53.9475348444
charge 0
end
begin
comment generated by PY
lattice        12.0000000000         0.0000000000         0.0000000000
lattice         0.0000000000        12.0000000000         0.0000000000
lattice         0.0000000000         0.0000000000        20.0000000000
atom         0.0000000000        0.0000000000        0.0000000000 H         0.0000000000         0.0000000000         0.0000000000       -0.0000000000        6.5569825749
atom         0.0000000000        0.0000000000        2.4600000000 H         0.0000000000         0.0000000000        -0.0000000000        0.0000000000       -6.5569825749
energy       -53.5133771740
charge 0
end
begin
comment generated by PY
lattice        12.0000000000         0.0000000000         0.0000000000
lattice         0.0000000000        12.0000000000         0.0000000000
lattice         0.0000000000         0.0000000000        20.0000000000
atom         0.0000000000        0.0000000000        0.0000000000 H         0.0000000000         0.0000000000         0.0000000000       -0.0000000000        5.4029913031
atom         0.0000000000        0.0000000000        2.5200000000 H         0.0000000000         0.0000000000        -0.0000000000        0.0000000000       -5.4029913031
energy       -53.1557609774
charge 0
end
begin
comment generated by PY
lattice        12.0000000000         0.0000000000         0.0000000000
lattice         0.0000000000        12.0000000000         0.0000000000
lattice         0.0000000000         0.0000000000        20.0000000000
atom         0.0000000000        0.0000000000        0.0000000000 H         0.0000000000         0.0000000000        -0.0000000000        0.0000000000        4.4536959642
atom         0.0000000000        0.0000000000        2.5800000000 H         0.0000000000         0.0000000000         0.0000000000       -0.0000000000       -4.4536959642
energy       -52.8610644989
charge 0
end
begin
comment generated by PY
lattice        12.0000000000         0.0000000000         0.0000000000
lattice         0.0000000000        12.0000000000         0.0000000000
lattice         0.0000000000         0.0000000000        20.0000000000
atom         0.0000000000        0.0000000000        0.0000000000 H         0.0000000000         0.0000000000        -0.0000000000        0.0000000000        3.6719055214
atom         0.0000000000        0.0000000000        2.6400000000 H         0.0000000000         0.0000000000         0.0000000000       -0.0000000000       -3.6719055214
energy       -52.6181242995
charge 0
end
begin
comment generated by PY
lattice        12.0000000000         0.0000000000         0.0000000000
lattice         0.0000000000        12.0000000000         0.0000000000
lattice         0.0000000000         0.0000000000        20.0000000000
atom         0.0000000000        0.0000000000        0.0000000000 H         0.0000000000         0.0000000000        -0.0000000000        0.0000000000        3.0263549243
atom         0.0000000000        0.0000000000        2.7000000000 H         0.0000000000         0.0000000000         0.0000000000       -0.0000000000       -3.0263549243
energy       -52.4178308092
charge 0
end
begin
comment generated by PY
lattice        12.0000000000         0.0000000000         0.0000000000
lattice         0.0000000000        12.0000000000         0.0000000000
lattice         0.0000000000         0.0000000000        20.0000000000
atom         0.0000000000        0.0000000000        0.0000000000 H         0.0000000000         0.0000000000         0.0000000000       -0.0000000000        2.4924643498
atom         0.0000000000        0.0000000000        2.7600000000 H         0.0000000000         0.0000000000        -0.0000000000        0.0000000000       -2.4924643498
energy       -52.2527601699
charge 0
end
begin
comment generated by PY
lattice        12.0000000000         0.0000000000         0.0000000000
lattice         0.0000000000        12.0000000000         0.0000000000
lattice         0.0000000000         0.0000000000        20.0000000000
atom         0.0000000000        0.0000000000        0.0000000000 H         0.0000000000         0.0000000000         0.0000000000       -0.0000000000        2.0496282988
atom         0.0000000000        0.0000000000        2.8200000000 H         0.0000000000         0.0000000000        -0.0000000000        0.0000000000       -2.0496282988
energy       -52.1166949488
charge 0
end
begin
comment generated by PY
lattice        12.0000000000         0.0000000000         0.0000000000
lattice         0.0000000000        12.0000000000         0.0000000000
lattice         0.0000000000         0.0000000000        20.0000000000
atom         0.0000000000        0.0000000000        0.0000000000 H         0.0000000000         0.0000000000        -0.0000000000        0.0000000000        1.6859462907
atom         0.0000000000        0.0000000000        2.8800000000 H         0.0000000000         0.0000000000         0.0000000000       -0.0000000000       -1.6859462907
energy       -52.0050150200
charge 0
end
begin
comment generated by PY
lattice        12.0000000000         0.0000000000         0.0000000000
lattice         0.0000000000        12.0000000000         0.0000000000
lattice         0.0000000000         0.0000000000        20.0000000000
atom         0.0000000000        0.0000000000        0.0000000000 H         0.0000000000         0.0000000000         0.0000000000       -0.0000000000        1.3842776135
atom         0.0000000000        0.0000000000        2.9400000000 H         0.0000000000         0.0000000000        -0.0000000000        0.0000000000       -1.3842776135
energy       -51.9131719599
charge 0
end
begin
comment generated by PY
lattice        12.0000000000         0.0000000000         0.0000000000
lattice         0.0000000000        12.0000000000         0.0000000000
lattice         0.0000000000         0.0000000000        20.0000000000
atom         0.0000000000        0.0000000000        0.0000000000 H         0.0000000000         0.0000000000        -0.0000000000       -0.0000000000        1.1347660221
atom         0.0000000000        0.0000000000        3.0000000000 H         0.0000000000         0.0000000000         0.0000000000        0.0000000000       -1.1347660221
energy       -51.8378395615
charge 0
end
begin
comment generated by PY
lattice        12.0000000000         0.0000000000         0.0000000000
lattice         0.0000000000        12.0000000000         0.0000000000
lattice         0.0000000000         0.0000000000        20.0000000000
atom         0.0000000000        0.0000000000        0.0000000000 H         0.0000000000         0.0000000000        -0.0000000000        0.0000000000        0.9284085670
atom         0.0000000000        0.0000000000        3.0600000000 H         0.0000000000         0.0000000000         0.0000000000       -0.0000000000       -0.9284085670
energy       -51.7761686644
charge 0
end
begin
comment generated by PY
lattice        12.0000000000         0.0000000000         0.0000000000
lattice         0.0000000000        12.0000000000         0.0000000000
lattice         0.0000000000         0.0000000000        20.0000000000
atom         0.0000000000        0.0000000000        0.0000000000 H         0.0000000000         0.0000000000         0.0000000000        0.0000000000        0.7574840359