begin
comment generated by PY
lattice        12.0000000000         0.0000000000         0.0000000000
lattice         0.0000000000        12.0000000000         0.0000000000
lattice         0.0000000000         0.0000000000        20.0000000000
atom         0.0000000000        0.0000000000        0.0000000000 H         0.0000000000         0.0000000000        -0.0002075449        0.0000230605   -16695.1313790761
atom         0.0000000000        0.0000000000        0.3000000000 N         0.0000000000         0.0000000000         0.0002075449       -0.0000230605    16695.1313790761
energy      2059.3410778172
charge 0
end
begin
comment generated by PY
lattice        12.0000000000         0.0000000000         0.0000000000
lattice         0.0000000000        12.0000000000         0.0000000000
lattice         0.0000000000         0.0000000000        20.0000000000
atom         0.0000000000        0.0000000000        0.0000000000 H         0.0000000000         0.0000000000         0.0000230605       -0.0000230605   -10738.6223869953
atom         0.0000000000        0.0000000000        0.3600000000 N         0.0000000000         0.0000000000        -0.0000230605        0.0000230605    10738.6223869953
energy      1251.5876041495
charge 0
end
begin
comment generated by PY
lattice        12.0000000000         0.0000000000         0.0000000000
lattice         0.0000000000        12.0000000000         0.0000000000
lattice         0.0000000000         0.0000000000        20.0000000000
atom         0.0000000000        0.0000000000        0.0000000000 H         0.0000000000         0.0000000000         0.0000922422       -0.0000230605    -7068.0580617412
atom         0.0000000000        0.0000000000        0.4200000000 N         0.0000000000         0.0000000000        -0.0000922422        0.0000230605     7068.0580617412
energy       725.3250022634
charge 0
end
begin
comment generated by PY
lattice        12.0000000000         0.0000000000         0.0000000000
lattice         0.0000000000        12.0000000000         0.0000000000
lattice         0.0000000000         0.0000000000        20.0000000000
atom         0.0000000000        0.0000000000        0.0000000000 H         0.0000000000         0.0000000000         0.0000461211        0.0000461211    -4671.8787083030
atom         0.0000000000        0.0000000000        0.4800000000 N         0.0000000000         0.0000000000        -0.0000461211       -0.0000461211     4671.8787083030
energy       377.8172650404
charge 0
end
begin
comment generated by PY
lattice        12.0000000000         0.0000000000         0.0000000000
lattice         0.0000000000        12.0000000000         0.0000000000
lattice         0.0000000000         0.0000000000        20.0000000000
atom         0.0000000000        0.0000000000        0.0000000000 H         0.0000000000         0.0000000000         0.0000230605        0.0000230605    -3069.1190646218
atom         0.0000000000        0.0000000000        0.5400000000 N         0.0000000000         0.0000000000        -0.0000230605       -0.0000230605     3069.1190646218
energy       148.6173158067
charge 0
end
begin
comment generated by PY
lattice        12.0000000000         0.0000000000         0.0000000000
lattice         0.0000000000        12.0000000000         0.0000000000
lattice         0.0000000000         0.0000000000        20.0000000000
atom         0.0000000000        0.0000000000        0.0000000000 H         0.0000000000         0.0000000000         0.0000461211        0.0000230605    -1992.2236880922
atom         0.0000000000        0.0000000000        0.6000000000 N         0.0000000000         0.0000000000        -0.0000461211       -0.0000230605     1992.2236880922
energy        -1.1893678652
charge 0
end
begin
comment generated by PY
lattice        12.0000000000         0.0000000000         0.0000000000
lattice         0.0000000000        12.0000000000         0.0000000000
lattice         0.0000000000         0.0000000000        20.0000000000
atom         0.0000000000        0.0000000000        0.0000000000 H         0.0000000000         0.0000000000         0.0000230605        0.0000230605    -1269.7876483762
atom         0.0000000000        0.0000000000        0.6600000000 N         0.0000000000         0.0000000000        -0.0000230605       -0.0000230605     1269.7876483762
energy       -97.6843858354
charge 0
end
begin
comment generated by PY
lattice        12.0000000000         0.0000000000         0.0000000000
lattice         0.0000000000        12.0000000000         0.0000000000
lattice         0.0000000000         0.0000000000        20.0000000000
atom         0.0000000000        0.0000000000        0.0000000000 H         0.0000000000         0.0000000000        -0.0000000000        0.0000230605     -785.1835027822
atom         0.0000000000        0.0000000000        0.7200000000 N         0.0000000000         0.0000000000         0.0000000000       -0.0000230605      785.1835027822
energy      -158.4215386446
charge 0
end
begin
comment generated by PY
lattice        12.0000000000         0.0000000000         0.0000000000
lattice         0.0000000000        12.0000000000         0.0000000000
lattice         0.0000000000         0.0000000000        20.0000000000
atom         0.0000000000        0.0000000000        0.0000000000 H         0.0000000000         0.0000000000        -0.0000000000        0.0000000000     -460.0380181635
atom         0.0000000000        0.0000000000        0.7800000000 N         0.0000000000         0.0000000000         0.0000000000       -0.0000000000      460.0380181635
energy      -195.1656315828
charge 0
end
begin
comment generated by PY
lattice        12.0000000000         0.0000000000         0.0000000000
lattice         0.0000000000        12.0000000000         0.0000000000
lattice         0.0000000000         0.0000000000        20.0000000000
atom         0.0000000000        0.0000000000        0.0000000000 H         0.0000000000         0.0000000000        -0.0000000000        0.0000000000     -242.6649877437
atom         0.0000000000        0.0000000000        0.8400000000 N         0.0000000000         0.0000000000         0.0000000000       -0.0000000000      242.6649877437
energy      -215.8313394369
charge 0
end
begin
comment generated by PY
lattice        12.0000000000         0.0000000000         0.0000000000
lattice         0.0000000000        12.0000000000         0.0000000000
lattice         0.0000000000         0.0000000000        20.0000000000
atom         0.0000000000        0.0000000000        0.0000000000 H         0.0000000000         0.0000000000        -0.0000000000       -0.0000000000      -98.4733128967
atom         0.0000000000        0.0000000000        0.9000000000 N         0.0000000000         0.0000000000         0.0000000000        0.0000000000       98.4733128967
energy      -225.7845423450
charge 0
end
begin
comment generated by PY
lattice        12.0000000000         0.0000000000         0.0000000000
lattice         0.0000000000        12.0000000000         0.0000000000
lattice         0.0000000000         0.0000000000        20.0000000000
atom         0.0000000000        0.0000000000        0.0000000000 H         0.0000000000         0.0000000000         0.0000000000        0.0000000000       -3.6164424414
atom         0.0000000000        0.0000000000        0.9600000000 N         0.0000000000         0.0000000000        -0.0000000000       -0.0000000000        3.6164424414
energy      -228.6595771687
charge 0
end
begin
comment generated by PY
lattice        12.0000000000         0.0000000000         0.0000000000
lattice         0.0000000000        12.0000000000         0.0000000000
lattice         0.0000000000         0.0000000000        20.0000000000
atom         0.0000000000        0.0000000000        0.0000000000 H         0.0000000000         0.0000000000        -0.0000000000       -0.0000000000       58.2864588319
atom         0.0000000000        0.0000000000        1.0200000000 N         0.0000000000         0.0000000000         0.0000000000        0.0000000000      -58.2864588319
energy      -226.8948063910
charge 0
end
begin
comment generated by PY
lattice        12.0000000000         0.0000000000         0.0000000000
lattice         0.0000000000        12.0000000000         0.0000000000
lattice         0.0000000000         0.0000000000        20.0000000000
atom         0.0000000000        0.0000000000        0.0000000000 H         0.0000000000         0.0000000000        -0.0000000000       -0.0000000000       98.1241910367
atom         0.0000000000        0.0000000000        1.0800000000 N         0.0000000000         0.0000000000         0.0000000000        0.0000000000      -98.1241910367
energy      -222.1188569014
charge 0
end
begin
comment generated by PY
lattice        12.0000000000         0.0000000000         0.0000000000
lattice         0.0000000000        12.0000000000         0.0000000000
lattice         0.0000000000         0.0000000000        20.0000000000
atom         0.0000000000        0.0000000000        0.0000000000 H         0.0000000000         0.0000000000        -0.0000000000       -0.0000000000      122.9646651419
atom         0.0000000000        0.0000000000        1.1400000000 N         0.0000000000         0.0000000000         0.0000000000        0.0000000000     -122.9646651419
energy      -215.4290812758
charge 0
end
begin
comment generated by PY
lattice        12.0000000000         0.0000000000         0.0000000000
lattice         0.0000000000        12.0000000000         0.0000000000
lattice         0.0000000000         0.0000000000        20.0000000000
atom         0.0000000000        0.0000000000        0.0000000000 H         0.0000000000         0.0000000000        -0.0000000000        0.0000000000      137.4319728439
atom         0.0000000000        0.0000000000        1.2000000000 N         0.0000000000         0.0000000000         0.0000000000       -0.0000000000     -137.4319728439
energy      -207.5777496762
charge 0
end
begin
comment generated by PY
lattice        12.0000000000         0.0000000000         0.0000000000
lattice         0.0000000000        12.0000000000         0.0000000000
lattice         0.0000000000         0.0000000000        20.0000000000
atom         0.0000000000        0.0000000000        0.0000000000 H         0.0000000000         0.0000000000        -0.0000000000        0.0000000000      144.6413025270
atom         0.0000000000        0.0000000000        1.2600000000 N         0.0000000000         0.0000000000         0.0000000000       -0.0000000000     -144.6413025270
energy      -199.0882159159
charge 0
end
begin
comment generated by PY
lattice        12.0000000000         0.0000000000         0.0000000000
lattice         0.0000000000        12.0000000000         0.0000000000
lattice         0.0000000000         0.0000000000        20.0000000000
atom         0.0000000000        0.0000000000        0.0000000000 H         0.0000000000         0.0000000000         0.0000000000        0.0000000000      146.7536859348
atom         0.0000000000        0.0000000000        1.3200000000 N         0.0000000000         0.0000000000        -0.0000000000       -0.0000000000     -146.7536859348
energy      -190.3274981424
charge 0
end
begin
comment generated by PY
lattice        12.0000000000         0.0000000000         0.0000000000
lattice         0.0000000000        12.0000000000         0.0000000000
lattice         0.0000000000         0.0000000000        20.0000000000
atom         0.0000000000        0.0000000000        0.0000000000 H         0.0000000000         0.0000000000        -0.0000000000        0.0000000000      145.3054126826
atom         0.0000000000        0.0000000000        1.3800000000 N         0.0000000000         0.0000000000         0.0000000000       -0.0000000000     -145.3054126826
energy      -181.5528583043
charge 0
end
begin
comment generated by PY
lattice        12.0000000000         0.0000000000         0.0000000000
lattice         0.0000000000        12.0000000000         0.0000000000
lattice         0.0000000000         0.0000000000        20.0000000000
atom         0.0000000000        0.0000000000        0.0000000000 H         0.0000000000         0.0000000000         0.0000000000        0.0000000000      141.4040382219
atom         0.0000000000        0.0000000000        1.4400000000 N         0.0000000000         0.0000000000        -0.0000000000       -0.0000000000     -141.4040382219
energy      -172.9429955914
charge 0
end
begin
comment generated by PY
lattice        12.0000000000         0.0000000000         0.0000000000
lattice         0.0000000000        12.0000000000         0.0000000000
lattice         0.0000000000         0.0000000000        20.0000000000
atom         0.0000000000        0.0000000000        0.0000000000 H         0.0000000000         0.0000000000         0.0000000000       -0.0000000000      135.8318961602
atom         0.0000000000        0.0000000000        1.5000000000 N         0.0000000000         0.0000000000        -0.0000000000        0.0000000000     -135.8318961602
energy      -164.6202130590
charge 0
end
begin
comment generated by PY
lattice        12.0000000000         0.0000000000         0.0000000000
lattice         0.0000000000        12.0000000000         0.0000000000
lattice         0.0000000000         0.0000000000        20.0000000000
atom         0.0000000000        0.0000000000        0.0000000000 H         0.0000000000         0.0000000000         0.0000000000        0.0000000000      129.0866468875
atom         0.0000000000        0.0000000000        1.5600000000 N         0.0000000000         0.0000000000        -0.0000000000       -0.0000000000     -129.0866468875
energy      -156.6685316162
charge 0
end
begin
comment generated by PY
lattice        12.0000000000         0.0000000000         0.0000000000
lattice         0.0000000000        12.0000000000         0.0000000000
lattice         0.0000000000         0.0000000000        20.0000000000
atom         0.0000000000        0.0000000000        0.0000000000 H         0.0000000000         0.0000000000         0.0000000000        0.0000000000      121.3969975383
atom         0.0000000000        0.0000000000        1.6200000000 N         0.0000000000         0.0000000000        -0.0000000000       -0.0000000000     -121.3969975383
energy      -149.1502023267
charge 0
end
begin
comment generated by PY
lattice        12.0000000000         0.0000000000         0.0000000000
lattice         0.0000000000        12.0000000000         0.0000000000
lattice         0.0000000000         0.0000000000        20.0000000000
atom         0.0000000000        0.0000000000        0.0000000000 H         0.0000000000         0.0000000000         0.0000000000       -0.0000000000      112.7359005955
atom         0.0000000000        0.0000000000        1.6800000000 N         0.0000000000         0.0000000000        -0.0000000000        0.0000000000     -112.7359005955
energy      -142.1215502416
charge 0
end
begin
comment generated by PY
lattice        12.0000000000         0.0000000000         0.0000000000
lattice         0.0000000000        12.0000000000         0.0000000000
lattice         0.0000000000         0.0000000000        20.0000000000
atom         0.0000000000        0.0000000000        0.0000000000 H         0.0000000000         0.0000000000         0.0000000000        0.0000000000      102.9274395310
atom         0.0000000000        0.0000000000        1.7400000000 N         0.0000000000         0.0000000000        -0.0000000000       -0.0000000000     -102.9274395310
energy      -135.6460237699
charge 0
end
begin
comment generated by PY
lattice        12.0000000000         0.0000000000         0.0000000000
lattice         0.0000000000        12.0000000000         0.0000000000
lattice         0.0000000000         0.0000000000        20.0000000000
atom         0.0000000000        0.0000000000        0.0000000000 H         0.0000000000         0.0000000000        -0.0000000000        0.0000000000       91.9832052609
atom         0.0000000000        0.0000000000        1.8000000000 N         0.0000000000         0.0000000000         0.0000000000       -0.0000000000      -91.9832052609
energy      -129.7943567199
charge 0
end
begin
comment generated by PY
lattice        12.0000000000         0.0000000000         0.0000000000
lattice         0.0000000000        12.0000000000         0.0000000000
lattice         0.0000000000         0.0000000000        20.0000000000
atom         0.0000000000        0.0000000000        0.0000000000 H         0.0000000000         0.0000000000        -0.0000000000        0.0000000000       80.4730405766
atom         0.0000000000        0.0000000000        1.8600000000 N         0.0000000000         0.0000000000         0.0000000000       -0.0000000000      -80.4730405766
energy      -124.6204664231
charge 0
end
begin
comment generated by PY
lattice        12.0000000000         0.0000000000         0.0000000000
lattice         0.0000000000        12.0000000000         0.0000000000
lattice         0.0000000000         0.0000000000        20.0000000000
atom         0.0000000000        0.0000000000        0.0000000000 H         0.0000000000         0.0000000000        -0.0000000000       -0.0000000000       69.2583371489
atom         0.0000000000        0.0000000000        1.9200000000 N         0.0000000000         0.0000000000         0.0000000000        0.0000000000      -69.2583371489
energy      -120.1323489174
charge 0
end
begin
comment generated by PY
lattice        12.0000000000         0.0000000000         0.0000000000
lattice         0.0000000000        12.0000000000         0.0000000000
lattice         0.0000000000         0.0000000000        20.0000000000
atom         0.0000000000        0.0000000000        0.0000000000 H         0.0000000000         0.0000000000        -0.0000000000       -0.0000000000       58.9607817128
atom         0.0000000000        0.0000000000        1.9800000000 N         0.0000000000         0.0000000000         0.0000000000        0.0000000000      -58.9607817128
energy      -116.2916860566
charge 0
end
begin
comment generated by PY
lattice        12.0000000000         0.0000000000         0.0000000000
lattice         0.0000000000        12.0000000000         0.0000000000
lattice         0.0000000000         0.0000000000        20.0000000000
atom         0.0000000000        0.0000000000        0.0000000000 H         0.0000000000         0.0000000000        -0.0000000000        0.0000000000       49.8475300541
atom         0.0000000000        0.0000000000        2.0400000000 N         0.0000000000         0.0000000000         0.0000000000       -0.0000000000      -49.8475300541
energy      -113.0339012759
charge 0
end
begin
comment generated by PY
lattice        12.0000000000         0.0000000000         0.0000000000
lattice         0.0000000000        12.0000000000         0.0000000000
lattice         0.0000000000         0.0000000000        20.0000000000
atom         0.0000000000        0.0000000000        0.0000000000 H         0.0000000000         0.0000000000         0.0000000000       -0.0000000000       41.9587512013
atom         0.0000000000        0.0000000000        2.1000000000 N         0.0000000000         0.0000000000        -0.0000000000        0.0000000000      -41.9587512013
energy      -110.2859731742
charge 0
end
begin
comment generated by PY
lattice        12.0000000000         0.0000000000         0.0000000000
lattice         0.0000000000        12.0000000000         0.0000000000
lattice         0.0000000000         0.0000000000        20.0000000000
atom         0.0000000000        0.0000000000        0.0000000000 H         0.0000000000         0.0000000000         0.0000000000       -0.0000000000       35.2253858274
atom         0.0000000000        0.0000000000        2.1600000000 N         0.0000000000         0.0000000000        -0.0000000000        0.0000000000      -35.2253858274
energy      -107.9761445043
charge 0
end
begin
comment generated by PY
lattice        12.0000000000         0.0000000000         0.0000000000
lattice         0.0000000000        12.0000000000         0.0000000000
lattice         0.0000000000         0.0000000000        20.0000000000
atom         0.0000000000        0.0000000000        0.0000000000 H         0.0000000000         0.0000000000         0.0000000000       -0.0000000000       29.5401529185
atom         0.0000000000        0.0000000000        2.2200000000 N         0.0000000000         0.0000000000        -0.0000000000        0.0000000000      -29.5401529185
energy      -106.0382419648
charge 0
end
begin
comment generated by PY
lattice        12.0000000000         0.0000000000         0.0000000000
lattice         0.0000000000        12.0000000000         0.0000000000
lattice         0.0000000000         0.0000000000        20.0000000000
atom         0.0000000000        0.0000000000        0.0000000000 H         0.0000000000         0.0000000000         0.0000000000        0.0000000000       24.7892066022
atom         0.0000000000        0.0000000000        2.2800000000 N         0.0000000000         0.0000000000        -0.0000000000       -0.0000000000      -24.7892066022
energy      -104.4128213198
charge 0
end
begin
comment generated by PY
lattice        12.0000000000         0.0000000000         0.0000000000
lattice         0.0000000000        12.0000000000         0.0000000000
lattice         0.0000000000         0.0000000000        20.0000000000
atom         0.0000000000        0.0000000000        0.0000000000 H         0.0000000000         0.0000000000         0.0000000000       -0.0000000000       20.8677026243
atom         0.0000000000        0.0000000000        2.3400000000 N         0.0000000000         0.0000000000        -0.0000000000        0.0000000000      -20.8677026243
energy      -103.0470227292
charge 0
end
begin
comment generated by PY
lattice        12.0000000000         0.0000000000         0.0000000000
lattice         0.0000000000        12.0000000000         0.0000000000
lattice         0.0000000000         0.0000000000        20.0000000000
atom         0.0000000000        0.0000000000        0.0000000000 H         0.0000000000         0.0000000000         0.0000000000       -0.0000000000       17.6614605147
atom         0.0000000000        0.0000000000        2.4000000000 N         0.0000000000         0.0000000000        -0.0000000000        0.0000000000      -17.6614605147
energy      -101.8944626160
charge 0
end
begin
comment generated by PY
lattice        12.0000000000         0.0000000000         0.0000000000
lattice         0.0000000000        12.0000000000         0.0000000000
lattice         0.0000000000         0.0000000000        20.0000000000
atom         0.0000000000        0.0000000000        0.0000000000 H         0.0000000000         0.0000000000         0.0000000000       -0.0000000000       15.0372434607
atom         0.0000000000        0.0000000000        2.4600000000 N         0.0000000000         0.0000000000        -0.0000000000        0.0000000000      -15.0372434607
energy      -100.9161959612
charge 0
end
begin
comment generated by PY
lattice        12.0000000000         0.0000000000         0.0000000000
lattice         0.0000000000        12.0000000000         0.0000000000
lattice         0.0000000000         0.0000000000        20.0000000000
atom         0.0000000000        0.0000000000        0.0000000000 H         0.0000000000         0.0000000000         0.0000000000       -0.0000000000       12.8565829991
atom         0.0000000000        0.0000000000        2.5200000000 N         0.0000000000         0.0000000000        -0.0000000000        0.0000000000      -12.8565829991
energy      -100.0814716603
charge 0
end
begin
comment generated by PY
lattice        12.0000000000         0.0000000000         0.0000000000
lattice         0.0000000000        12.0000000000         0.0000000000
lattice         0.0000000000         0.0000000000        20.0000000000
atom         0.0000000000        0.0000000000        0.0000000000 H         0.0000000000         0.0000000000         0.0000000000        0.0000000000       11.0059183336
atom         0.0000000000        0.0000000000        2.5800000000 N         0.0000000000         0.0000000000        -0.0000000000       -0.0000000000      -11.0059183336
energy       -99.3672361472
charge 0
end
begin
comment generated by PY
lattice        12.0000000000         0.0000000000         0.0000000000
lattice         0.0000000000        12.0000000000         0.0000000000
lattice         0.0000000000         0.0000000000        20.0000000000
atom         0.0000000000        0.0000000000        0.0000000000 H         0.0000000000         0.0000000000         0.0000000000        0.0000000000        9.4134188985
atom         0.0000000000        0.0000000000        2.6400000000 N         0.0000000000         0.0000000000        -0.0000000000       -0.0000000000       -9.4134188985
energy       -98.7559759223
charge 0
end
begin
comment generated by PY
lattice        12.0000000000         0.0000000000         0.0000000000
lattice         0.0000000000        12.0000000000         0.0000000000
lattice         0.0000000000         0.0000000000        20.0000000000
atom         0.0000000000        0.0000000000        0.0000000000 H         0.0000000000         0.0000000000        -0.0000000000        0.0000000000       -1.8927346158
atom         0.0000000000        0.0000000000        2.7000000000 N         0.0000000000         0.0000000000         0.0000000000       -0.0000000000        1.8927346158
energy       -94.8517763566
charge 0
end
begin
comment generated by PY
lattice        12.0000000000         0.0000000000         0.0000000000
lattice         0.0000000000        12.0000000000         0.0000000000
lattice         0.0000000000         0.0000000000        20.0000000000
atom         0.0000000000        0.0000000000        0.0000000000 H         0.0000000000         0.0000000000        -0.0000000000        0.0000000000       -1.5091402534
atom         0.0000000000        0.0000000000        2.7600000000 N         0.0000000000         0.0000000000         0.0000000000       -0.0000000000        1.5091402534
energy       -94.9533658348
charge 0
end
begin
comment generated by PY
lattice        12.0000000000         0.0000000000         0.0000000000
lattice         0.0000000000        12.0000000000         0.0000000000
lattice         0.0000000000         0.0000000000        20.0000000000
atom         0.0000000000        0.0000000000        0.0000000000 H         0.0000000000         0.0000000000        -0.0000000000        0.0000000000       -1.2106199032
atom         0.0000000000        0.0000000000        2.8200000000 N         0.0000000000         0.0000000000         0.0000000000       -0.0000000000        1.2106199032
energy       -95.0345651748
charge 0
end
begin
comment generated by PY
lattice        12.0000000000         0.0000000000         0.0000000000
lattice         0.0000000000        12.0000000000         0.0000000000
lattice         0.0000000000         0.0000000000        20.0000000000
atom         0.0000000000        0.0000000000        0.0000000000 H         0.0000000000         0.0000000000         0.0000000000        0.0000000000       -0.9779314135
atom         0.0000000000        0.0000000000        2.8800000000 N         0.0000000000         0.0000000000        -0.0000000000       -0.0000000000        0.9779314135
energy       -95.0998583703
charge 0
end
begin
comment generated by PY
lattice        12.0000000000         0.0000000000         0.0000000000
lattice         0.0000000000        12.0000000000         0.0000000000
lattice         0.0000000000         0.0000000000        20.0000000000
atom         0.0000000000        0.0000000000        0.0000000000 H         0.0000000000         0.0000000000         0.0000000000        0.0000000000       -0.7939054142
atom         0.0000000000        0.0000000000        2.9400000000 N         0.0000000000         0.0000000000        -0.0000000000       -0.0000000000        0.7939054142
energy       -95.1527350382
charge 0
end
begin
comment generated by PY
lattice        12.0000000000         0.0000000000         0.0000000000
lattice         0.0000000000        12.0000000000         0.0000000000
lattice         0.0000000000         0.0000000000        20.0000000000
atom         0.0000000000        0.0000000000        0.0000000000 H         0.0000000000         0.0000000000         0.0000000000        0.0000000000       -0.6493096351
atom         0.0000000000        0.0000000000        3.0000000000 N         0.0000000000         0.0000000000        -0.0000000000       -0.0000000000        0.6493096351
energy       -95.1958338721
charge 0
end
begin
comment generated by PY
lattice        12.0000000000         0.0000000000         0.0000000000
lattice         0.0000000000        12.0000000000         0.0000000000
lattice         0.0000000000         0.0000000000        20.0000000000
atom         0.0000000000        0.0000000000        0.0000000000 H         0.0000000000         0.0000000000        -0.0000000000       -0.0000000000       -0.5351876225
atom         0.0000000000        0.0000000000        3.0600000000 N         0.0000000000         0.0000000000         0.0000000000        0.0000000000        0.5351876225
energy       -95.2313084334
charge 0
end
begin
comment generated by PY
lattice        12.0000000000         0.0000000000         0.0000000000
lattice         0.0000000000        12.0000000000         0.0000000000
lattice         0.0000000000         0.0000000000        20.0000000000
atom         0.0000000000        0.0000000000        0.0000000000 H         0.0000000000         0.0000000000         0.0000000000       -0.0000000000       -0.4465423056