begin
comment generated by PY
lattice        12.0000000000         0.0000000000         0.0000000000
lattice         0.0000000000        12.0000000000         0.0000000000
lattice         0.0000000000         0.0000000000        20.0000000000
atom         0.0000000000        0.0000000000        0.0000000000 N         0.0000000000         0.0000000000        -0.0000000000        0.0000000000   -22486.6650448177
atom         0.0000000000        0.0000000000        0.5000000000 N         0.0000000000         0.0000000000         0.0000000000       -0.0000000000    22486.6650448177
energy      2826.2681612886
charge 0
end
begin
comment generated by PY
lattice        12.0000000000         0.0000000000         0.0000000000
lattice         0.0000000000        12.0000000000         0.0000000000
lattice         0.0000000000         0.0000000000        20.0000000000
atom         0.0000000000        0.0000000000        0.0000000000 N         0.0000000000         0.0000000000         0.0000000000       -0.0000000000   -15518.9725990379
atom         0.0000000000        0.0000000000        0.5600000000 N         0.0000000000         0.0000000000        -0.0000000000        0.0000000000    15518.9725990379
energy      1698.3050576001
charge 0
end
begin
comment generated by PY
lattice        12.0000000000         0.0000000000         0.0000000000
lattice         0.0000000000        12.0000000000         0.0000000000
lattice         0.0000000000         0.0000000000        20.0000000000
atom         0.0000000000        0.0000000000        0.0000000000 N         0.0000000000         0.0000000000         0.0000000000        0.0000000000   -10615.2045423608
atom         0.0000000000        0.0000000000        0.6200000000 N         0.0000000000         0.0000000000        -0.0000000000       -0.0000000000    10615.2045423608
energy       922.9125526967
charge 0
end
begin
comment generated by PY
lattice        12.0000000000         0.0000000000         0.0000000000
lattice         0.0000000000        12.0000000000         0.0000000000
lattice         0.0000000000         0.0000000000        20.0000000000
atom         0.0000000000        0.0000000000        0.0000000000 N         0.0000000000         0.0000000000        -0.0000000000        0.0000000000    -7175.0046205384
atom         0.0000000000        0.0000000000        0.6800000000 N         0.0000000000         0.0000000000         0.0000000000       -0.0000000000     7175.0046205384
energy       395.3262997073
charge 0
end
begin
comment generated by PY
lattice        12.0000000000         0.0000000000         0.0000000000
lattice         0.0000000000        12.0000000000         0.0000000000
lattice         0.0000000000         0.0000000000        20.0000000000
atom         0.0000000000        0.0000000000        0.0000000000 N         0.0000000000         0.0000000000         0.0000230605        0.0000000000    -4765.8323898947
atom         0.0000000000        0.0000000000        0.7400000000 N         0.0000000000         0.0000000000        -0.0000230605       -0.0000000000     4765.8323898947
energy        41.3775270632
charge 0
end
begin
comment generated by PY
lattice        12.0000000000         0.0000000000         0.0000000000
lattice         0.0000000000        12.0000000000         0.0000000000
lattice         0.0000000000         0.0000000000        20.0000000000
atom         0.0000000000        0.0000000000        0.0000000000 N         0.0000000000         0.0000000000        -0.0000230605       -0.0000230605    -3073.6028522438
atom         0.0000000000        0.0000000000        0.8000000000 N         0.0000000000         0.0000000000         0.0000230605        0.0000230605     3073.6028522438
energy      -190.8415566115
charge 0
end
begin
comment generated by PY
lattice        12.0000000000         0.0000000000         0.0000000000
lattice         0.0000000000        12.0000000000         0.0000000000
lattice         0.0000000000         0.0000000000        20.0000000000
atom         0.0000000000        0.0000000000        0.0000000000 N         0.0000000000         0.0000000000        -0.0001153027        0.0000461211    -1880.2179133644
atom         0.0000000000        0.0000000000        0.8600000000 N         0.0000000000         0.0000000000         0.0001153027       -0.0000461211     1880.2179133644
energy      -337.3793507877
charge 0
end
begin
comment generated by PY
lattice        12.0000000000         0.0000000000         0.0000000000
lattice         0.0000000000        12.0000000000         0.0000000000
lattice         0.0000000000         0.0000000000        20.0000000000
atom         0.0000000000        0.0000000000        0.0000000000 N         0.0000000000         0.0000000000         0.0000230605       -0.0000000000    -1040.3130803823
atom         0.0000000000        0.0000000000        0.9200000000 N         0.0000000000         0.0000000000        -0.0000230605        0.0000000000     1040.3130803823
energy      -423.5036036665
charge 0
end
begin
comment generated by PY
lattice        12.0000000000         0.0000000000         0.0000000000
lattice         0.0000000000        12.0000000000         0.0000000000
lattice         0.0000000000         0.0000000000        20.0000000000
atom         0.0000000000        0.0000000000        0.0000000000 N         0.0000000000         0.0000000000         0.0000000000        0.0000230605     -457.2065327582
atom         0.0000000000        0.0000000000        0.9800000000 N         0.0000000000         0.0000000000        -0.0000000000       -0.0000230605      457.2065327582
energy      -467.3333963104
charge 0
end
begin
comment generated by PY
lattice        12.0000000000         0.0000000000         0.0000000000
lattice         0.0000000000        12.0000000000         0.0000000000
lattice         0.0000000000         0.0000000000        20.0000000000
atom         0.0000000000        0.0000000000        0.0000000000 N         0.0000000000         0.0000000000        -0.0000000000       -0.0000000000      -63.8896313888
atom         0.0000000000        0.0000000000        1.0400000000 N         0.0000000000         0.0000000000         0.0000000000        0.0000000000       63.8896313888
energy      -482.1536670733
charge 0
end
begin
comment generated by PY
lattice        12.0000000000         0.0000000000         0.0000000000
lattice         0.0000000000        12.0000000000         0.0000000000
lattice         0.0000000000         0.0000000000        20.0000000000
atom         0.0000000000        0.0000000000        0.0000000000 N         0.0000000000         0.0000000000        -0.0000000000       -0.0000000000      189.3058538360
atom         0.0000000000        0.0000000000        1.1000000000 N         0.0000000000         0.0000000000         0.0000000000        0.0000000000     -189.3058538360
energy      -477.7965987861
charge 0
end
begin
comment generated by PY
lattice        12.0000000000         0.0000000000         0.0000000000
lattice         0.0000000000        12.0000000000         0.0000000000
lattice         0.0000000000         0.0000000000        20.0000000000
atom         0.0000000000        0.0000000000        0.0000000000 N         0.0000000000         0.0000000000        -0.0000000000        0.0000000000      341.5876382157
atom         0.0000000000        0.0000000000        1.1600000000 N         0.0000000000         0.0000000000         0.0000000000       -0.0000000000     -341.5876382157
energy      -461.4505015811
charge 0
end
begin
comment generated by PY
lattice        12.0000000000         0.0000000000         0.0000000000
lattice         0.0000000000        12.0000000000         0.0000000000
lattice         0.0000000000         0.0000000000        20.0000000000
atom         0.0000000000        0.0000000000        0.0000000000 N         0.0000000000         0.0000000000        -0.0000000000       -0.0000000000      424.4529573945
atom         0.0000000000        0.0000000000        1.2200000000 N         0.0000000000         0.0000000000         0.0000000000        0.0000000000     -424.4529573945
energy      -438.1891752722
charge 0
end
begin
comment generated by PY
lattice        12.0000000000         0.0000000000         0.0000000000
lattice         0.0000000000        12.0000000000         0.0000000000
lattice         0.0000000000         0.0000000000        20.0000000000
atom         0.0000000000        0.0000000000        0.0000000000 N         0.0000000000         0.0000000000        -0.0000000000       -0.0000000000      462.1628996552
atom         0.0000000000        0.0000000000        1.2800000000 N         0.0000000000         0.0000000000         0.0000000000        0.0000000000     -462.1628996552
energy      -411.4136334733
charge 0
end
begin
comment generated by PY
lattice        12.0000000000         0.0000000000         0.0000000000
lattice         0.0000000000        12.0000000000         0.0000000000
lattice         0.0000000000         0.0000000000        20.0000000000
atom         0.0000000000        0.0000000000        0.0000000000 N         0.0000000000         0.0000000000        -0.0000000000       -0.0000000000      471.8431929307
atom         0.0000000000        0.0000000000        1.3400000000 N         0.0000000000         0.0000000000         0.0000000000        0.0000000000     -471.8431929307
energy      -383.2855813665
charge 0
end
begin
comment generated by PY
lattice        12.0000000000         0.0000000000         0.0000000000
lattice         0.0000000000        12.0000000000         0.0000000000
lattice         0.0000000000         0.0000000000        20.0000000000
atom         0.0000000000        0.0000000000        0.0000000000 N         0.0000000000         0.0000000000        -0.0000230605        0.0000000000      464.5773731708
atom         0.0000000000        0.0000000000        1.4000000000 N         0.0000000000         0.0000000000         0.0000230605       -0.0000000000     -464.5773731708
energy      -355.1285472359
charge 0
end
begin
comment generated by PY
lattice        12.0000000000         0.0000000000         0.0000000000
lattice         0.0000000000        12.0000000000         0.0000000000
lattice         0.0000000000         0.0000000000        20.0000000000
atom         0.0000000000        0.0000000000        0.0000000000 N         0.0000000000         0.0000000000        -0.0000000000        0.0000000000      447.2570614377
atom         0.0000000000        0.0000000000        1.4600000000 N         0.0000000000         0.0000000000         0.0000000000       -0.0000000000     -447.2570614377
energy      -327.7359399946
charge 0
end
begin
comment generated by PY
lattice        12.0000000000         0.0000000000         0.0000000000
lattice         0.0000000000        12.0000000000         0.0000000000
lattice         0.0000000000         0.0000000000        20.0000000000
atom         0.0000000000        0.0000000000        0.0000000000 N         0.0000000000         0.0000000000         0.0000000000       -0.0000000000      424.1804165053
atom         0.0000000000        0.0000000000        1.5200000000 N         0.0000000000         0.0000000000        -0.0000000000        0.0000000000     -424.1804165053
energy      -301.5722465716
charge 0
end
begin
comment generated by PY
lattice        12.0000000000         0.0000000000         0.0000000000
lattice         0.0000000000        12.0000000000         0.0000000000
lattice         0.0000000000         0.0000000000        20.0000000000
atom         0.0000000000        0.0000000000        0.0000000000 N         0.0000000000         0.0000000000         0.0000000000        0.0000000000      364.0163237434
atom         0.0000000000        0.0000000000        1.5800000000 N         0.0000000000         0.0000000000        -0.0000000000       -0.0000000000     -364.0163237434
energy      -277.8108657786
charge 0
end
begin
comment generated by PY
lattice        12.0000000000         0.0000000000         0.0000000000
lattice         0.0000000000        12.0000000000         0.0000000000
lattice         0.0000000000         0.0000000000        20.0000000000
atom         0.0000000000        0.0000000000        0.0000000000 N         0.0000000000         0.0000000000         0.0000000000        0.0000000000      309.1964411553
atom         0.0000000000        0.0000000000        1.6400000000 N         0.0000000000         0.0000000000        -0.0000000000       -0.0000000000     -309.1964411553
energy      -257.6700531752
charge 0
end
begin
comment generated by PY
lattice        12.0000000000         0.0000000000         0.0000000000
lattice         0.0000000000        12.0000000000         0.0000000000
lattice         0.0000000000         0.0000000000        20.0000000000
atom         0.0000000000        0.0000000000        0.0000000000 N         0.0000000000         0.0000000000         0.0000000000        0.0000000000      264.1523577888
atom         0.0000000000        0.0000000000        1.7000000000 N         0.0000000000         0.0000000000        -0.0000000000       -0.0000000000     -264.1523577888
energy      -240.5126700012
charge 0
end
begin
comment generated by PY
lattice        12.0000000000         0.0000000000         0.0000000000
lattice         0.0000000000        12.0000000000         0.0000000000
lattice         0.0000000000         0.0000000000        20.0000000000
atom         0.0000000000        0.0000000000        0.0000000000 N         0.0000000000         0.0000000000        -0.0000000000       -0.0000000000      226.7185068882
atom         0.0000000000        0.0000000000        1.7600000000 N         0.0000000000         0.0000000000         0.0000000000        0.0000000000     -226.7185068882
energy      -225.8201441910
charge 0
end
begin
comment generated by PY
lattice        12.0000000000         0.0000000000         0.0000000000
lattice         0.0000000000        12.0000000000         0.0000000000
lattice         0.0000000000         0.0000000000        20.0000000000
atom         0.0000000000        0.0000000000        0.0000000000 N         0.0000000000         0.0000000000        -0.0000000000       -0.0000000000      195.1957393759
atom         0.0000000000        0.0000000000        1.8200000000 N         0.0000000000         0.0000000000         0.0000000000        0.0000000000     -195.1957393759
energy      -213.1885707360
charge 0
end
begin
comment generated by PY
lattice        12.0000000000         0.0000000000         0.0000000000
lattice         0.0000000000        12.0000000000         0.0000000000
lattice         0.0000000000         0.0000000000        20.0000000000
atom         0.0000000000        0.0000000000        0.0000000000 N         0.0000000000         0.0000000000         0.0000000000       -0.0000000000      168.1679675193
atom         0.0000000000        0.0000000000        1.8800000000 N         0.0000000000         0.0000000000        -0.0000000000        0.0000000000     -168.1679675193
energy      -202.3070034601
charge 0
end
begin
comment generated by PY
lattice        12.0000000000         0.0000000000         0.0000000000
lattice         0.0000000000        12.0000000000         0.0000000000
lattice         0.0000000000         0.0000000000        20.0000000000
atom         0.0000000000        0.0000000000        0.0000000000 N         0.0000000000         0.0000000000         0.0000000000        0.0000000000      144.4717836636
atom         0.0000000000        0.0000000000        1.9400000000 N         0.0000000000         0.0000000000        -0.0000000000       -0.0000000000     -144.4717836636
energy      -192.9420708308
charge 0
end
begin
comment generated by PY
lattice        12.0000000000         0.0000000000         0.0000000000
lattice         0.0000000000        12.0000000000         0.0000000000
lattice         0.0000000000         0.0000000000        20.0000000000
atom         0.0000000000        0.0000000000        0.0000000000 N         0.0000000000         0.0000000000         0.0000000000       -0.0000000000      123.2921063498
atom         0.0000000000        0.0000000000        2.0000000000 N         0.0000000000         0.0000000000        -0.0000000000        0.0000000000     -123.2921063498
energy      -184.9204567477
charge 0
end
begin
comment generated by PY
lattice        12.0000000000         0.0000000000         0.0000000000
lattice         0.0000000000        12.0000000000         0.0000000000
lattice         0.0000000000         0.0000000000        20.0000000000
atom         0.0000000000        0.0000000000        0.0000000000 N         0.0000000000         0.0000000000         0.0000000000        0.0000000000      104.2556121952
atom         0.0000000000        0.0000000000        2.0600000000 N         0.0000000000         0.0000000000        -0.0000000000       -0.0000000000     -104.2556121952
energy      -178.1045599656
charge 0
end
begin
comment generated by PY
lattice        12.0000000000         0.0000000000         0.0000000000
lattice         0.0000000000        12.0000000000         0.0000000000
lattice         0.0000000000         0.0000000000        20.0000000000
atom         0.0000000000        0.0000000000        0.0000000000 N         0.0000000000         0.0000000000        -0.0000000000       -0.0000000000       87.3435502279
atom         0.0000000000        0.0000000000        2.1200000000 N         0.0000000000         0.0000000000         0.0000000000        0.0000000000      -87.3435502279
energy      -172.3676044053
charge 0
end
begin
comment generated by PY
lattice        12.0000000000         0.0000000000         0.0000000000
lattice         0.0000000000        12.0000000000         0.0000000000
lattice         0.0000000000         0.0000000000        20.0000000000
atom         0.0000000000        0.0000000000        0.0000000000 N         0.0000000000         0.0000000000        -0.0000000000        0.0000000000       72.6403502447
atom         0.0000000000        0.0000000000        2.1800000000 N         0.0000000000         0.0000000000         0.0000000000       -0.0000000000      -72.6403502447
energy      -167.5793445769
charge 0
end
begin
comment generated by PY
lattice        12.0000000000         0.0000000000         0.0000000000
lattice         0.0000000000        12.0000000000         0.0000000000
lattice         0.0000000000         0.0000000000        20.0000000000
atom         0.0000000000        0.0000000000        0.0000000000 N         0.0000000000         0.0000000000        -0.0000000000        0.0000000000       60.1300964685
atom         0.0000000000        0.0000000000        2.2400000000 N         0.0000000000         0.0000000000         0.0000000000       -0.0000000000      -60.1300964685
energy      -163.6070106733
charge 0
end
begin
comment generated by PY
lattice        12.0000000000         0.0000000000         0.0000000000
lattice         0.0000000000        12.0000000000         0.0000000000
lattice         0.0000000000         0.0000000000        20.0000000000
atom         0.0000000000        0.0000000000        0.0000000000 N         0.0000000000         0.0000000000        -0.0000000000        0.0000000000       49.6632895408
atom         0.0000000000        0.0000000000        2.3000000000 N         0.0000000000         0.0000000000         0.0000000000       -0.0000000000      -49.6632895408
energy      -160.3228783246
charge 0
end
begin
comment generated by PY
lattice        12.0000000000         0.0000000000         0.0000000000
lattice         0.0000000000        12.0000000000         0.0000000000
lattice         0.0000000000         0.0000000000        20.0000000000
atom         0.0000000000        0.0000000000        0.0000000000 N         0.0000000000         0.0000000000        -0.0000000000        0.0000000000       40.9902942503
atom         0.0000000000        0.0000000000        2.3600000000 N         0.0000000000         0.0000000000         0.0000000000       -0.0000000000      -40.9902942503
energy      -157.6115591850
charge 0
end
begin
comment generated by PY
lattice        12.0000000000         0.0000000000         0.0000000000
lattice         0.0000000000        12.0000000000         0.0000000000
lattice         0.0000000000         0.0000000000        20.0000000000
atom         0.0000000000        0.0000000000        0.0000000000 N         0.0000000000         0.0000000000        -0.0000000000        0.0000000000       33.8375538258
atom         0.0000000000        0.0000000000        2.4200000000 N         0.0000000000         0.0000000000         0.0000000000       -0.0000000000      -33.8375538258
energy      -155.3735755641
charge 0
end
begin
comment generated by PY
lattice        12.0000000000         0.0000000000         0.0000000000
lattice         0.0000000000        12.0000000000         0.0000000000
lattice         0.0000000000         0.0000000000        20.0000000000
atom         0.0000000000        0.0000000000        0.0000000000 N         0.0000000000         0.0000000000        -0.0000000000        0.0000000000       27.9372141306
atom         0.0000000000        0.0000000000        2.4800000000 N         0.0000000000         0.0000000000         0.0000000000       -0.0000000000      -27.9372141306
energy      -153.5258851986
charge 0
end
begin
comment generated by PY
lattice        12.0000000000         0.0000000000         0.0000000000
lattice         0.0000000000        12.0000000000         0.0000000000
lattice         0.0000000000         0.0000000000        20.0000000000
atom         0.0000000000        0.0000000000        0.0000000000 N         0.0000000000         0.0000000000         0.0000000000       -0.0000000000       23.0663469872
atom         0.0000000000        0.0000000000        2.5400000000 N         0.0000000000         0.0000000000        -0.0000000000        0.0000000000      -23.0663469872
energy      -152.0003457205
charge 0
end
begin
comment generated by PY
lattice        12.0000000000         0.0000000000         0.0000000000
lattice         0.0000000000        12.0000000000         0.0000000000
lattice         0.0000000000         0.0000000000        20.0000000000
atom         0.0000000000        0.0000000000        0.0000000000 N         0.0000000000         0.0000000000        -0.0000000000        0.0000000000       19.0477560522
atom         0.0000000000        0.0000000000        2.6000000000 N         0.0000000000         0.0000000000         0.0000000000       -0.0000000000      -19.0477560522
energy      -150.7407566703
charge 0
end
begin
comment generated by PY
lattice        12.0000000000         0.0000000000         0.0000000000
lattice         0.0000000000        12.0000000000         0.0000000000
lattice         0.0000000000         0.0000000000        20.0000000000
atom         0.0000000000        0.0000000000        0.0000000000 N         0.0000000000         0.0000000000        -0.0000000000        0.0000000000       15.7498619059
atom         0.0000000000        0.0000000000        2.6600000000 N         0.0000000000         0.0000000000         0.0000000000       -0.0000000000      -15.7498619059
energy      -149.7002261884
charge 0
end
begin
comment generated by PY
lattice        12.0000000000         0.0000000000         0.0000000000
lattice         0.0000000000        12.0000000000         0.0000000000
lattice         0.0000000000         0.0000000000        20.0000000000
atom         0.0000000000        0.0000000000        0.0000000000 N         0.0000000000         0.0000000000        -0.0000000000       -0.0000000000       13.0719845132
atom         0.0000000000        0.0000000000        2.7200000000 N         0.0000000000         0.0000000000         0.0000000000        0.0000000000      -13.0719845132
energy      -148.8385026331
charge 0
end
begin
comment generated by PY
lattice        12.0000000000         0.0000000000         0.0000000000
lattice         0.0000000000        12.0000000000         0.0000000000
lattice         0.0000000000         0.0000000000        20.0000000000
atom         0.0000000000        0.0000000000        0.0000000000 N         0.0000000000         0.0000000000        -0.0000000000       -0.0000000000       10.9222163078
atom         0.0000000000        0.0000000000        2.7800000000 N         0.0000000000         0.0000000000         0.0000000000        0.0000000000      -10.9222163078
energy      -148.1212106451
charge 0
end
begin
comment generated by PY
lattice        12.0000000000         0.0000000000         0.0000000000
lattice         0.0000000000        12.0000000000         0.0000000000
lattice         0.0000000000         0.0000000000        20.0000000000
atom         0.0000000000        0.0000000000        0.0000000000 N         0.0000000000         0.0000000000        -0.0000000000       -0.0000000000        9.2090840612
atom         0.0000000000        0.0000000000        2.8400000000 N         0.0000000000         0.0000000000         0.0000000000        0.0000000000       -9.2090840612
energy      -147.5192395406
charge 0
end
begin
comment generated by PY
lattice        12.0000000000         0.0000000000         0.0000000000
lattice         0.0000000000        12.0000000000         0.0000000000
lattice         0.0000000000         0.0000000000        20.0000000000
atom         0.0000000000        0.0000000000        0.0000000000 N         0.0000000000         0.0000000000        -0.0000000000        0.0000000000        7.8305349096
atom         0.0000000000        0.0000000000        2.9000000000 N         0.0000000000         0.0000000000         0.0000000000       -0.0000000000       -7.8305349096
energy      -147.0095119108
charge 0
end
begin
comment generated by PY
lattice        12.0000000000         0.0000000000         0.0000000000
lattice         0.0000000000        12.0000000000         0.0000000000
lattice         0.0000000000         0.0000000000        20.0000000000
atom         0.0000000000        0.0000000000        0.0000000000 N         0.0000000000         0.0000000000        -0.0000000000        0.0000000000        6.6993635621
atom         0.0000000000        0.0000000000        2.9600000000 N         0.0000000000         0.0000000000         0.0000000000       -0.0000000000       -6.6993635621
energy      -146.5746268711
charge 0
end
begin
comment generated by PY
lattice        12.0000000000         0.0000000000         0.0000000000
lattice         0.0000000000        12.0000000000         0.0000000000
lattice         0.0000000000         0.0000000000        20.0000000000
atom         0.0000000000        0.0000000000        0.0000000000 N         0.0000000000         0.0000000000        -0.0000000000        0.0000000000        5.7437886015
atom         0.0000000000        0.0000000000        3.0200000000 N         0.0000000000         0.0000000000         0.0000000000       -0.0000000000       -5.7437886015
energy      -146.2019934058
charge 0
end
begin
comment generated by PY
lattice        12.0000000000         0.0000000000         0.0000000000
lattice         0.0000000000        12.0000000000         0.0000000000
lattice         0.0000000000         0.0000000000        20.0000000000
atom         0.0000000000        0.0000000000        0.0000000000 N         0.0000000000         0.0000000000        -0.0000000000        0.0000000000        4.9233787470
atom         0.0000000000        0.0000000000        3.0800000000 N         0.0000000000         0.0000000000         0.0000000000       -0.0000000000       -4.9233787470
energy      -145.8824801185
charge 0
end
begin
comment generated by PY
lattice        12.0000000000         0.0000000000         0.0000000000
lattice         0.0000000000        12.0000000000         0.0000000000
lattice         0.0000000000         0.0000000000        20.0000000000
atom         0.0000000000        0.0000000000        0.0000000000 N         0.0000000000         0.0000000000        -0.0000000000        0.0000000000        4.2116835639
atom         0.0000000000        0.0000000000        3.1400000000 N         0.0000000000         0.0000000000         0.0000000000       -0.0000000000       -4.2116835639
energy      -145.6087754361
charge 0
end
begin
comment generated by PY
lattice        12.0000000000         0.0000000000         0.0000000000
lattice         0.0000000000        12.0000000000         0.0000000000
lattice         0.0000000000         0.0000000000        20.0000000000
atom         0.0000000000        0.0000000000        0.0000000000 N         0.0000000000         0.0000000000        -0.0000000000        0.0000000000        3.5956464952
atom         0.0000000000        0.0000000000        3.2000000000 N         0.0000000000         0.0000000000         0.0000000000       -0.0000000000       -3.5956464952
energy      -145.3749622112
charge 0
end
begin
comment generated by PY
lattice        12.0000000000         0.0000000000         0.0000000000
lattice         0.0000000000        12.0000000000         0.0000000000
lattice         0.0000000000         0.0000000000        20.0000000000
atom         0.0000000000        0.0000000000        0.0000000000 N         0.0000000000         0.0000000000        -0.0000000000        0.0000000000        3.0640045875
atom         0.0000000000        0.0000000000        3.2600000000 N         0.0000000000         0.0000000000         0.0000000000       -0.0000000000       -3.0640045875
energy      -145.1755612514
charge 0
end
begin
comment generated by PY
lattice        12.0000000000         0.0000000000         0.0000000000
lattice         0.0000000000        12.0000000000         0.0000000000
lattice         0.0000000000         0.0000000000        20.0000000000
atom         0.0000000000        0.0000000000        0.0000000000 N         0.0000000000         0.0000000000        -0.0000000000       -0.0000000000        2.6063042506