begin
comment generated by PY
lattice        12.0000000000         0.0000000000         0.0000000000
lattice         0.0000000000        12.0000000000         0.0000000000
lattice         0.0000000000         0.0000000000        20.0000000000
atom         6.0000000000        6.2373200000       10.9656300000 O         0.0000000000         0.0000000000        -0.0000461211     -119.3517637827     -180.7543603114
atom         6.0000000000        6.2373200000        9.0343700000 O         0.0000000000         0.0000000000         0.0004612110      329.4211057179     -665.9564656551
atom         6.0000000000        5.7626800000        9.8500000000 N         0.0000000000         0.0000000000        -0.0003920293     -210.0683419351      846.7108259665
energy      -608.6282266983
charge 0
end
begin
comment generated by PY
lattice        12.0000000000         0.0000000000         0.0000000000
lattice         0.0000000000        12.0000000000         0.0000000000
lattice         0.0000000000         0.0000000000        20.0000000000
atom         6.0000000000        6.2373200000       10.9956300000 O         0.0000000000         0.0000000000         0.0007148770     -117.2516497261     -208.9282894490
atom         6.0000000000        6.2373200000        9.0043700000 O         0.0000000000         0.0000000000         0.0012913907      165.7609717911     -372.5585676990
atom         6.0000000000        5.7626800000        9.8800000000 N         0.0000000000         0.0000000000        -0.0020293282      -48.5093220650      581.4868571480
energy      -638.6590743893
charge 0
end
begin
comment generated by PY
lattice        12.0000000000         0.0000000000         0.0000000000
lattice         0.0000000000        12.0000000000         0.0000000000
lattice         0.0000000000         0.0000000000        20.0000000000
atom         6.0000000000        6.2373200000       11.0256300000 O         0.0000000000         0.0000000000         0.0000922422     -115.5919248464     -230.0036447317
atom         6.0000000000        6.2373200000        8.9743700000 O         0.0000000000         0.0000000000        -0.0000461211      151.4070817593     -340.1950133245
atom         6.0000000000        5.7626800000        9.9100000000 N         0.0000000000         0.0000000000        -0.0000461211      -35.8158569129      570.1986811168
energy      -659.7253219127
charge 0
end
begin
comment generated by PY
lattice        12.0000000000         0.0000000000         0.0000000000
lattice         0.0000000000        12.0000000000         0.0000000000
lattice         0.0000000000         0.0000000000        20.0000000000
atom         6.0000000000        6.2373200000       11.0556300000 O         0.0000000000         0.0000000000        -0.0000230605     -114.4176667217     -248.1088224103
atom         6.0000000000        6.2373200000        8.9443700000 O         0.0000000000         0.0000000000         0.0000461211      -61.1582901474      107.4267475687
atom         6.0000000000        5.7626800000        9.9400000000 N         0.0000000000         0.0000000000        -0.0000230605      175.5759568690      140.6825748416
energy      -665.7378370590
charge 0
end
begin
comment generated by PY
lattice        12.0000000000         0.0000000000         0.0000000000
lattice         0.0000000000        12.0000000000         0.0000000000
lattice         0.0000000000         0.0000000000        20.0000000000
atom         6.0000000000        6.2373200000       11.0856300000 O         0.0000000000         0.0000000000         0.0000230605     -113.7575650397     -266.2318969674
atom         6.0000000000        6.2373200000        8.9143700000 O         0.0000000000         0.0000000000        -0.0000230605      -98.9977276655      219.0157422383
atom         6.0000000000        5.7626800000        9.9700000000 N         0.0000000000         0.0000000000        -0.0000000000      212.7542927053       47.2161547291
energy      -655.6348726223
charge 0
end
begin
comment generated by PY
lattice        12.0000000000         0.0000000000         0.0000000000
lattice         0.0000000000        12.0000000000         0.0000000000
lattice         0.0000000000         0.0000000000        20.0000000000
atom         6.0000000000        6.2373200000       11.1156300000 O         0.0000000000         0.0000000000        -0.0002075449     -113.5521460541     -281.9496734818
atom         6.0000000000        6.2373200000        8.8843700000 O         0.0000000000         0.0000000000         0.0002767266     -113.5493096067      281.9435163155
atom         6.0000000000        5.7626800000       10.0000000000 N         0.0000000000         0.0000000000        -0.0000922422      227.1024787214        0.0061571663
energy      -640.4060978020
charge 0
end
begin
comment generated by PY
lattice        12.0000000000         0.0000000000         0.0000000000
lattice         0.0000000000        12.0000000000         0.0000000000
lattice         0.0000000000         0.0000000000        20.0000000000
atom         6.0000000000        6.2373200000       11.1456300000 O         0.0000000000         0.0000000000        -0.0003920293     -113.8284535201     -295.7653449350
atom         6.0000000000        6.2373200000        8.8543700000 O         0.0000000000         0.0000000000         0.0006687559     -114.1786793130      311.0280767087
atom         6.0000000000        5.7626800000       10.0300000000 N         0.0000000000         0.0000000000        -0.0002767266      228.0075328331      -15.2629548342
energy      -622.4786472714
charge 0
end
begin
comment generated by PY
lattice        12.0000000000         0.0000000000         0.0000000000
lattice         0.0000000000        12.0000000000         0.0000000000
lattice         0.0000000000         0.0000000000        20.0000000000
atom         6.0000000000        6.2373200000       11.1756300000 O         0.0000000000         0.0000000000         0.0001844844     -114.6046046319     -308.3310650419
atom         6.0000000000        6.2373200000        8.8243700000 O         0.0000000000         0.0000000000         0.0000691816     -106.9015841395      317.2631475227
atom         6.0000000000        5.7626800000       10.0600000000 N         0.0000000000         0.0000000000        -0.0002536660      221.5064887714       -8.9322055413
energy      -603.5387017814
charge 0
end
begin
comment generated by PY
lattice        12.0000000000         0.0000000000         0.0000000000
lattice         0.0000000000        12.0000000000         0.0000000000
lattice         0.0000000000         0.0000000000        20.0000000000
atom         6.0000000000        6.2373200000       11.2056300000 O         0.0000000000         0.0000000000        -0.0000000000     -115.9014230644     -320.0228543666
atom         6.0000000000        6.2373200000        8.7943700000 O         0.0000000000         0.0000000000        -0.0000000000      -95.5799327704      308.5084382943
atom         6.0000000000        5.7626800000       10.0900000000 N         0.0000000000         0.0000000000         0.0000000000      211.4815558348       11.5143160723
energy      -584.7063872557
charge 0
end
begin
comment generated by PY
lattice        12.0000000000         0.0000000000         0.0000000000
lattice         0.0000000000        12.0000000000         0.0000000000
lattice         0.0000000000         0.0000000000        20.0000000000
atom         6.0000000000        6.2373200000       11.2356300000 O         0.0000000000         0.0000000000         0.0000230605     -117.7080556959     -331.1695558492
atom         6.0000000000        6.2373200000        8.7643700000 O         0.0000000000         0.0000000000         0.0000000000      -82.5118754026      290.1807645962
atom         6.0000000000        5.7626800000       10.1200000000 N         0.0000000000         0.0000000000        -0.0000230605      200.2197310985       40.9887912530
energy      -566.7088000354
charge 0
end
begin
comment generated by PY
lattice        12.0000000000         0.0000000000         0.0000000000
lattice         0.0000000000        12.0000000000         0.0000000000
lattice         0.0000000000         0.0000000000        20.0000000000
atom         6.0000000000        6.2373200000       11.2656300000 O         0.0000000000         0.0000000000        -0.0000000000     -119.9698720882     -341.8988888554
atom         6.0000000000        6.2373200000        8.7343700000 O         0.0000000000         0.0000000000         0.0000000000      -69.0354081505      265.8146438095
atom         6.0000000000        5.7626800000       10.1500000000 N         0.0000000000         0.0000000000         0.0000000000      189.0047802387       76.0842219854
energy      -550.0061438771
charge 0
end
begin
comment generated by PY
lattice        12.0000000000         0.0000000000         0.0000000000
lattice         0.0000000000        12.0000000000         0.0000000000
lattice         0.0000000000         0.0000000000        20.0000000000
atom         6.0000000000        6.2373200000       11.2956300000 O         0.0000000000         0.0000000000         0.0000000000     -121.4701662711     -348.0846313025
atom         6.0000000000        6.2373200000        8.7043700000 O         0.0000000000         0.0000000000        -0.0000000000      -60.1252981631      249.5097794855
atom         6.0000000000        5.7626800000       10.1800000000 N         0.0000000000         0.0000000000        -0.0000000000      181.5958644342       98.5748518171
energy      -526.9016667265
charge 0
end
begin
comment generated by PY
lattice        12.0000000000         0.0000000000         0.0000000000
lattice         0.0000000000        12.0000000000         0.0000000000
lattice         0.0000000000         0.0000000000        20.0000000000
atom         6.0000000000        6.2373200000       11.3256300000 O         0.0000000000         0.0000000000         0.0000000000     -124.7100328934     -356.6909950137
atom         6.0000000000        6.2373200000        8.6743700000 O         0.0000000000         0.0000000000        -0.0000230605      -49.8965062326      225.0082371810
atom         6.0000000000        5.7626800000       10.2100000000 N         0.0000000000         0.0000000000         0.0000230605      174.6065621866      131.6829578327
energy      -512.6665245530
charge 0
end
begin
comment generated by PY
lattice        12.0000000000         0.0000000000         0.0000000000
lattice         0.0000000000        12.0000000000         0.0000000000
lattice         0.0000000000         0.0000000000        20.0000000000
atom         6.0000000000        6.2373200000       11.3556300000 O         0.0000000000         0.0000000000         0.0000000000     -128.0950949936     -364.5489132695
atom         6.0000000000        6.2373200000        8.6443700000 O         0.0000000000         0.0000000000         0.0000230605      -40.9163042454      201.0335645837
atom         6.0000000000        5.7626800000       10.2400000000 N         0.0000000000         0.0000000000        -0.0000230605      169.0113992390      163.5150256252
energy      -499.8910830856
charge 0
end
begin
comment generated by PY
lattice        12.0000000000         0.0000000000         0.0000000000
lattice         0.0000000000        12.0000000000         0.0000000000
lattice         0.0000000000         0.0000000000        20.0000000000
atom         6.0000000000        6.2373200000       11.3856300000 O         0.0000000000         0.0000000000         0.0000461211     -131.4601866592     -371.6763521283
atom         6.0000000000        6.2373200000        8.6143700000 O         0.0000000000         0.0000000000        -0.0000000000      -33.1852165331      178.4583910100
atom         6.0000000000        5.7626800000       10.2700000000 N         0.0000000000         0.0000000000        -0.0000230605      164.6455031924      193.2187841788
energy      -488.5148631985
charge 0
end
begin
comment generated by PY
lattice        12.0000000000         0.0000000000         0.0000000000
lattice         0.0000000000        12.0000000000         0.0000000000
lattice         0.0000000000         0.0000000000        20.0000000000
atom         6.0000000000        6.2373200000       11.4156300000 O         0.0000000000         0.0000000000        -0.0002536660     -131.4888782385     -380.0217159761
atom         6.0000000000        6.2373200000        8.5843700000 O         0.0000000000         0.0000000000         0.0002997871      -20.6788776191      145.7276375274
atom         6.0000000000        5.7626800000       10.3000000000 N         0.0000000000         0.0000000000        -0.0000461211      152.1675327970      234.2941784487
energy      -478.8409133796
charge 0
end
begin
comment generated by PY
lattice        12.0000000000         0.0000000000         0.0000000000
lattice         0.0000000000        12.0000000000         0.0000000000
lattice         0.0000000000         0.0000000000        20.0000000000
atom         6.0000000000        6.2373200000       11.4456300000 O         0.0000000000         0.0000000000        -0.0009454825     -137.4723399747     -383.4134695249
atom         6.0000000000        6.2373200000        8.5543700000 O         0.0000000000         0.0000000000        -0.0005765137      -20.9690173977      138.7682592659
atom         6.0000000000        5.7626800000       10.3300000000 N         0.0000000000         0.0000000000         0.0015219962      158.4418573724      244.6453102590
energy      -469.5285578938
charge 0
end
begin
comment generated by PY
lattice        12.0000000000         0.0000000000         0.0000000000
lattice         0.0000000000        12.0000000000         0.0000000000
lattice         0.0000000000         0.0000000000        20.0000000000
atom         6.0000000000        6.2373200000       11.4756300000 O         0.0000000000         0.0000000000        -0.0002997871     -134.3550109555     -391.0480878930
atom         6.0000000000        6.2373200000        8.5243700000 O         0.0000000000         0.0000000000         0.0007379375       -6.7538850514      101.4013868771
atom         6.0000000000        5.7626800000       10.3600000000 N         0.0000000000         0.0000000000        -0.0004612110      141.1090729463      289.6467010159
energy      -464.2532569528
charge 0
end
begin
comment generated by PY
lattice        12.0000000000         0.0000000000         0.0000000000
lattice         0.0000000000        12.0000000000         0.0000000000
lattice         0.0000000000         0.0000000000        20.0000000000
atom         6.0000000000        6.2373200000       11.5056300000 O         0.0000000000         0.0000000000        -0.0012683301     -136.4033746579     -394.3350808055
atom         6.0000000000        6.2373200000        8.4943700000 O         0.0000000000         0.0000000000        -0.0009916036       -3.2948930723       86.9328620195
atom         6.0000000000        5.7626800000       10.3900000000 N         0.0000000000         0.0000000000         0.0022599337      139.6984777302      307.4015187860
energy      -458.6235046551
charge 0
end
begin
comment generated by PY
lattice        12.0000000000         0.0000000000         0.0000000000
lattice         0.0000000000        12.0000000000         0.0000000000
lattice         0.0000000000         0.0000000000        20.0000000000
atom         6.0000000000        6.2373200000       11.5356300000 O         0.0000000000         0.0000000000         0.0000691816     -142.0843427894     -396.0989271251
atom         6.0000000000        6.2373200000        8.4643700000 O         0.0000000000         0.0000000000         0.0000230605       -4.5842974002       81.0724868317
atom         6.0000000000        5.7626800000       10.4200000000 N         0.0000000000         0.0000000000        -0.0000691816      146.6688901897      315.0261402934
energy      -451.9794967509
charge 0
end
begin
comment generated by PY
lattice        12.0000000000         0.0000000000         0.0000000000
lattice         0.0000000000        12.0000000000         0.0000000000
lattice         0.0000000000         0.0000000000        20.0000000000
atom         6.0000000000        6.2373200000       11.5956300000 O         0.0000000000         0.0000000000        -0.0010377247     -142.5084389213     -395.4813763997
atom         6.0000000000        6.2373200000        8.4043700000 O         0.0000000000         0.0000000000         0.0002767266        1.2289968582       55.1881731771
atom         6.0000000000        5.7626800000       10.4800000000 N         0.0000000000         0.0000000000         0.0007609981      141.2787120631      340.2933032225
energy      -445.8529006439
charge 0
end
begin
comment generated by PY
lattice        12.0000000000         0.0000000000         0.0000000000
lattice         0.0000000000        12.0000000000         0.0000000000
lattice         0.0000000000         0.0000000000        20.0000000000
atom         6.0000000000        6.2373200000       11.6256300000 O         0.0000000000         0.0000000000         0.0424314083     -144.2617030584     -394.0104159394
atom         6.0000000000        6.2373200000        8.3743700000 O         0.0000000000         0.0000000000         0.0282952924        1.7244519093       47.2125733580
atom         6.0000000000        5.7626800000       10.5100000000 N         0.0000000000         0.0000000000        -0.0707267008      142.5375711491      346.7977425814
energy      -442.8092927528
charge 0
end
begin
comment generated by PY
lattice        12.0000000000         0.0000000000         0.0000000000
lattice         0.0000000000        12.0000000000         0.0000000000
lattice         0.0000000000         0.0000000000        20.0000000000
atom         6.0000000000        6.2373200000       11.8656300000 O         0.0000000000         0.0000000000         0.0986530244     -154.8114301463     -390.7052723413
atom         6.0000000000        6.2373200000        8.1343700000 O         0.0000000000         0.0000000000         0.0540078034        1.5222896886       18.4092420389
atom         6.0000000000        5.7626800000       10.7500000000 N         0.0000000000         0.0000000000        -0.1526608278      153.2894874577      372.2957303024
energy      -424.5839131596
charge 0
end
begin
comment generated by PY
lattice        12.0000000000         0.0000000000         0.0000000000
lattice         0.0000000000        12.0000000000         0.0000000000
lattice         0.0000000000         0.0000000000        20.0000000000
atom         6.0000000000        6.2373200000       11.8956300000 O         0.0000000000         0.0000000000         0.0075407992     -156.7909413199     -389.3157839730
atom         6.0000000000        6.2373200000        8.1043700000 O         0.0000000000         0.0000000000         0.0077483441        0.6880832936       16.9944485183
atom         6.0000000000        5.7626800000       10.7800000000 N         0.0000000000         0.0000000000        -0.0152891433      156.1027740263      372.3209023941
energy      -424.5016351146
charge 0
end
begin
comment generated by PY
lattice        12.0000000000         0.0000000000         0.0000000000
lattice         0.0000000000        12.0000000000         0.0000000000
lattice         0.0000000000         0.0000000000        20.0000000000
atom         6.0000000000        6.2373200000       11.9556300000 O         0.0000000000         0.0000000000         0.3835891556     -156.1627887850     -384.4285973915
atom         6.0000000000        6.2373200000        8.0443700000 O         0.0000000000         0.0000000000         0.1878742847        1.1768438056       10.5328008343
atom         6.0000000000        5.7626800000       10.8400000000 N         0.0000000000         0.0000000000        -0.5714634403      154.9866010399      373.8962765572
energy      -423.2699931651
charge 0
end
begin
comment generated by PY
lattice        12.0000000000         0.0000000000         0.0000000000
lattice         0.0000000000        12.0000000000         0.0000000000
lattice         0.0000000000         0.0000000000        20.0000000000
atom         6.0000000000        6.2373200000       11.9856300000 O         0.0000000000         0.0000000000         0.5118288631     -158.3575848384     -389.7827597144
atom         6.0000000000        6.2373200000        8.0143700000 O         0.0000000000         0.0000000000         0.2116727702        0.8709718055       12.2746080973
atom         6.0000000000        5.7626800000       10.8700000000 N         0.0000000000         0.0000000000        -0.7235016333      157.4866380935      377.5074085566
energy      -422.8087918845
charge 0
end
begin
comment generated by PY
lattice        12.0000000000         0.0000000000         0.0000000000
lattice         0.0000000000        12.0000000000         0.0000000000
lattice         0.0000000000         0.0000000000        20.0000000000
atom         6.0000000000        6.2373200000       12.0456300000 O         0.0000000000         0.0000000000         0.1307071861     -159.3297651539     -387.9980975175
atom         6.0000000000        6.2373200000        7.9543700000 O         0.0000000000         0.0000000000         0.1630611350        0.7472423689        9.1994693177
atom         6.0000000000        5.7626800000       10.9300000000 N         0.0000000000         0.0000000000        -0.2937683211      158.5827107850      378.7983881998
energy      -421.0709886862
charge 0
end
begin
comment generated by PY
lattice        12.0000000000         0.0000000000         0.0000000000
lattice         0.0000000000        12.0000000000         0.0000000000
lattice         0.0000000000         0.0000000000        20.0000000000
atom         6.0000000000        6.2373200000       12.1056300000 O         0.0000000000         0.0000000000        -0.1223362072     -161.1421795966     -386.9766368110
atom         6.0000000000        6.2373200000        7.8943700000 O         0.0000000000         0.0000000000        -0.0911352857        0.2576202543        6.7553157804
atom         6.0000000000        5.7626800000       10.9900000000 N         0.0000000000         0.0000000000         0.2134714929      160.8846053423      380.2212130306
energy      -415.3474090710
charge 0
end
