begin
comment generated by PY
lattice        12.0000000000         0.0000000000         0.0000000000
lattice         0.0000000000        12.0000000000         0.0000000000
lattice         0.0000000000         0.0000000000        20.0000000000
atom         0.0000000000        0.0000000000        0.5000000000 O         0.0000000000         0.0000000000        -0.0002536660        0.0003459082    24754.0419168847
atom         0.0000000000        0.0000000000        0.0000000000 N         0.0000000000         0.0000000000         0.0002536660       -0.0003459082   -24754.0419168847
energy      3014.0522180508
charge 0
end
begin
comment generated by PY
lattice        12.0000000000         0.0000000000         0.0000000000
lattice         0.0000000000        12.0000000000         0.0000000000
lattice         0.0000000000         0.0000000000        20.0000000000
atom         0.0000000000        0.0000000000        0.5600000000 O         0.0000000000         0.0000000000         0.0008763008       -0.0001383633    16476.9217350942
atom         0.0000000000        0.0000000000        0.0000000000 N         0.0000000000         0.0000000000        -0.0008763008        0.0001383633   -16476.9217350942
energy      1792.9845699452
charge 0
end
begin
comment generated by PY
lattice        12.0000000000         0.0000000000         0.0000000000
lattice         0.0000000000        12.0000000000         0.0000000000
lattice         0.0000000000         0.0000000000        20.0000000000
atom         0.0000000000        0.0000000000        0.6200000000 O         0.0000000000         0.0000000000         0.0008763008       -0.0007379375    10879.9244981478
atom         0.0000000000        0.0000000000        0.0000000000 N         0.0000000000         0.0000000000        -0.0008763008        0.0007379375   -10879.9244981478
energy       983.9055401325
charge 0
end
begin
comment generated by PY
lattice        12.0000000000         0.0000000000         0.0000000000
lattice         0.0000000000        12.0000000000         0.0000000000
lattice         0.0000000000         0.0000000000        20.0000000000
atom         0.0000000000        0.0000000000        0.6800000000 O         0.0000000000         0.0000000000        -0.0001153027       -0.0002075449     7140.1472218566
atom         0.0000000000        0.0000000000        0.0000000000 N         0.0000000000         0.0000000000         0.0001153027        0.0002075449    -7140.1472218566
energy       452.1375774464
charge 0
end
begin
comment generated by PY
lattice        12.0000000000         0.0000000000         0.0000000000
lattice         0.0000000000        12.0000000000         0.0000000000
lattice         0.0000000000         0.0000000000        20.0000000000
atom         0.0000000000        0.0000000000        0.7400000000 O         0.0000000000         0.0000000000         0.0004842715        0.0031592951     4610.2453804430
atom         0.0000000000        0.0000000000        0.0000000000 N         0.0000000000         0.0000000000        -0.0004842715       -0.0031592951    -4610.2453804430
energy       104.6985709425
charge 0
end
begin
comment generated by PY
lattice        12.0000000000         0.0000000000         0.0000000000
lattice         0.0000000000        12.0000000000         0.0000000000
lattice         0.0000000000         0.0000000000        20.0000000000
atom         0.0000000000        0.0000000000        0.8000000000 O         0.0000000000         0.0000000000         0.0053269866        0.0011991485     2902.8132219535
atom         0.0000000000        0.0000000000        0.0000000000 N         0.0000000000         0.0000000000        -0.0053269866       -0.0011991485    -2902.8132219535
energy      -117.5703416906
charge 0
end
begin
comment generated by PY
lattice        12.0000000000         0.0000000000         0.0000000000
lattice         0.0000000000        12.0000000000         0.0000000000
lattice         0.0000000000         0.0000000000        20.0000000000
atom         0.0000000000        0.0000000000        0.8600000000 O         0.0000000000         0.0000000000         0.0000230605        0.0000691816     1738.2544156646
atom         0.0000000000        0.0000000000        0.0000000000 N         0.0000000000         0.0000000000        -0.0000230605       -0.0000691816    -1738.2544156646
energy      -254.9756712417
charge 0
end
begin
comment generated by PY
lattice        12.0000000000         0.0000000000         0.0000000000
lattice         0.0000000000        12.0000000000         0.0000000000
lattice         0.0000000000         0.0000000000        20.0000000000
atom         0.0000000000        0.0000000000        0.9200000000 O         0.0000000000         0.0000000000        -0.0000230605       -0.0000691816      963.2582571343
atom         0.0000000000        0.0000000000        0.0000000000 N         0.0000000000         0.0000000000         0.0000230605        0.0000691816     -963.2582571343
energy      -334.2625748302
charge 0
end
begin
comment generated by PY
lattice        12.0000000000         0.0000000000         0.0000000000
lattice         0.0000000000        12.0000000000         0.0000000000
lattice         0.0000000000         0.0000000000        20.0000000000
atom         0.0000000000        0.0000000000        0.9800000000 O         0.0000000000         0.0000000000         0.0000230605       -0.0000000000      578.4769540665
atom         0.0000000000        0.0000000000        0.0000000000 N         0.0000000000         0.0000000000        -0.0000230605        0.0000000000     -578.4769540665
energy      -378.1396726670
charge 0
end
begin
comment generated by PY
lattice        12.0000000000         0.0000000000         0.0000000000
lattice         0.0000000000        12.0000000000         0.0000000000
lattice         0.0000000000         0.0000000000        20.0000000000
atom         0.0000000000        0.0000000000        1.0400000000 O         0.0000000000         0.0000000000         0.0000000000       -0.0000000000      536.8552817680
atom         0.0000000000        0.0000000000        0.0000000000 N         0.0000000000         0.0000000000        -0.0000000000        0.0000000000     -536.8552817680
energy      -412.7044786020
charge 0
end
begin
comment generated by PY
lattice        12.0000000000         0.0000000000         0.0000000000
lattice         0.0000000000        12.0000000000         0.0000000000
lattice         0.0000000000         0.0000000000        20.0000000000
atom         0.0000000000        0.0000000000        1.1000000000 O         0.0000000000         0.0000000000         0.0000000000        0.0000000000     -175.3246168109
atom         0.0000000000        0.0000000000        0.0000000000 N         0.0000000000         0.0000000000        -0.0000000000       -0.0000000000      175.3246168109
energy      -421.0169805661
charge 0
end
begin
comment generated by PY
lattice        12.0000000000         0.0000000000         0.0000000000
lattice         0.0000000000        12.0000000000         0.0000000000
lattice         0.0000000000         0.0000000000        20.0000000000
atom         0.0000000000        0.0000000000        1.1600000000 O         0.0000000000         0.0000000000         0.0000000000       -0.0000000000     -311.7120716578
atom         0.0000000000        0.0000000000        0.0000000000 N         0.0000000000         0.0000000000        -0.0000000000        0.0000000000      311.7120716578
energy      -405.9402826618
charge 0
end
begin
comment generated by PY
lattice        12.0000000000         0.0000000000         0.0000000000
lattice         0.0000000000        12.0000000000         0.0000000000
lattice         0.0000000000         0.0000000000        20.0000000000
atom         0.0000000000        0.0000000000        1.2200000000 O         0.0000000000         0.0000000000         0.0000000000        0.0000000000     -381.8642092899
atom         0.0000000000        0.0000000000        0.0000000000 N         0.0000000000         0.0000000000        -0.0000000000       -0.0000000000      381.8642092899
energy      -384.8795029037
charge 0
end
begin
comment generated by PY
lattice        12.0000000000         0.0000000000         0.0000000000
lattice         0.0000000000        12.0000000000         0.0000000000
lattice         0.0000000000         0.0000000000        20.0000000000
atom         0.0000000000        0.0000000000        1.2800000000 O         0.0000000000         0.0000000000         0.0000000000        0.0000000000     -411.4337702264
atom         0.0000000000        0.0000000000        0.0000000000 N         0.0000000000         0.0000000000        -0.0000000000       -0.0000000000      411.4337702264
energy      -360.9230625283
charge 0
end
begin
comment generated by PY
lattice        12.0000000000         0.0000000000         0.0000000000
lattice         0.0000000000        12.0000000000         0.0000000000
lattice         0.0000000000         0.0000000000        20.0000000000
atom         0.0000000000        0.0000000000        1.3400000000 O         0.0000000000         0.0000000000        -0.0000000000        0.0000000000     -416.3359552217
atom         0.0000000000        0.0000000000        0.0000000000 N         0.0000000000         0.0000000000         0.0000000000       -0.0000000000      416.3359552217
energy      -335.9969564337
charge 0
end
begin
comment generated by PY
lattice        12.0000000000         0.0000000000         0.0000000000
lattice         0.0000000000        12.0000000000         0.0000000000
lattice         0.0000000000         0.0000000000        20.0000000000
atom         0.0000000000        0.0000000000        1.4000000000 O         0.0000000000         0.0000000000         0.0000000000       -0.0000000000     -406.7644057267
atom         0.0000000000        0.0000000000        0.0000000000 N         0.0000000000         0.0000000000        -0.0000000000        0.0000000000      406.7644057267
energy      -311.2500613712
charge 0
end
begin
comment generated by PY
lattice        12.0000000000         0.0000000000         0.0000000000
lattice         0.0000000000        12.0000000000         0.0000000000
lattice         0.0000000000         0.0000000000        20.0000000000
atom         0.0000000000        0.0000000000        1.4600000000 O         0.0000000000         0.0000000000        -0.0000230605       -0.0000000000     -388.6132196914
atom         0.0000000000        0.0000000000        0.0000000000 N         0.0000000000         0.0000000000         0.0000230605        0.0000000000      388.6132196914
energy      -287.3556783568
charge 0
end
begin
comment generated by PY
lattice        12.0000000000         0.0000000000         0.0000000000
lattice         0.0000000000        12.0000000000         0.0000000000
lattice         0.0000000000         0.0000000000        20.0000000000
atom         0.0000000000        0.0000000000        1.5200000000 O         0.0000000000         0.0000000000         0.0000000000        0.0000000000     -364.6699365080
atom         0.0000000000        0.0000000000        0.0000000000 N         0.0000000000         0.0000000000        -0.0000000000       -0.0000000000      364.6699365080
energy      -264.7313371130
charge 0
end
begin
comment generated by PY
lattice        12.0000000000         0.0000000000         0.0000000000
lattice         0.0000000000        12.0000000000         0.0000000000
lattice         0.0000000000         0.0000000000        20.0000000000
atom         0.0000000000        0.0000000000        1.5800000000 O         0.0000000000         0.0000000000        -0.0000000000       -0.0000000000     -335.1230386511
atom         0.0000000000        0.0000000000        0.0000000000 N         0.0000000000         0.0000000000         0.0000000000        0.0000000000      335.1230386511
energy      -243.7071287830
charge 0
end
begin
comment generated by PY
lattice        12.0000000000         0.0000000000         0.0000000000
lattice         0.0000000000        12.0000000000         0.0000000000
lattice         0.0000000000         0.0000000000        20.0000000000
atom         0.0000000000        0.0000000000        1.6400000000 O         0.0000000000         0.0000000000        -0.0000000000       -0.0000000000     -299.7201848412
atom         0.0000000000        0.0000000000        0.0000000000 N         0.0000000000         0.0000000000         0.0000000000        0.0000000000      299.7201848412
energy      -224.6389940441
charge 0
end
begin
comment generated by PY
lattice        12.0000000000         0.0000000000         0.0000000000
lattice         0.0000000000        12.0000000000         0.0000000000
lattice         0.0000000000         0.0000000000        20.0000000000
atom         0.0000000000        0.0000000000        1.7000000000 O         0.0000000000         0.0000000000        -0.0000000000       -0.0000000000     -262.6424226424
atom         0.0000000000        0.0000000000        0.0000000000 N         0.0000000000         0.0000000000         0.0000000000        0.0000000000      262.6424226424
energy      -207.7740897308
charge 0
end
begin
comment generated by PY
lattice        12.0000000000         0.0000000000         0.0000000000
lattice         0.0000000000        12.0000000000         0.0000000000
lattice         0.0000000000         0.0000000000        20.0000000000
atom         0.0000000000        0.0000000000        1.7600000000 O         0.0000000000         0.0000000000         0.0000000000        0.0000000000     -218.9031735079
atom         0.0000000000        0.0000000000        0.0000000000 N         0.0000000000         0.0000000000        -0.0000000000       -0.0000000000      218.9031735079
energy      -194.8792595708
charge 0
end
begin
comment generated by PY
lattice        12.0000000000         0.0000000000         0.0000000000
lattice         0.0000000000        12.0000000000         0.0000000000
lattice         0.0000000000         0.0000000000        20.0000000000
atom         0.0000000000        0.0000000000        1.8200000000 O         0.0000000000         0.0000000000         0.0000000000       -0.0000000000     -197.4112420011
atom         0.0000000000        0.0000000000        0.0000000000 N         0.0000000000         0.0000000000        -0.0000000000        0.0000000000      197.4112420011
energy      -180.3158140746
charge 0
end
begin
comment generated by PY
lattice        12.0000000000         0.0000000000         0.0000000000
lattice         0.0000000000        12.0000000000         0.0000000000
lattice         0.0000000000         0.0000000000        20.0000000000
atom         0.0000000000        0.0000000000        1.8800000000 O         0.0000000000         0.0000000000         0.0000000000       -0.0000000000     -169.8099967032
atom         0.0000000000        0.0000000000        0.0000000000 N         0.0000000000         0.0000000000        -0.0000000000        0.0000000000      169.8099967032
energy      -169.3133062678
charge 0
end
begin
comment generated by PY
lattice        12.0000000000         0.0000000000         0.0000000000
lattice         0.0000000000        12.0000000000         0.0000000000
lattice         0.0000000000         0.0000000000        20.0000000000
atom         0.0000000000        0.0000000000        1.9400000000 O         0.0000000000         0.0000000000        -0.0000000000        0.0000000000     -144.7950605655
atom         0.0000000000        0.0000000000        0.0000000000 N         0.0000000000         0.0000000000         0.0000000000       -0.0000000000      144.7950605655
energy      -159.8870689840
charge 0
end
begin
comment generated by PY
lattice        12.0000000000         0.0000000000         0.0000000000
lattice         0.0000000000        12.0000000000         0.0000000000
lattice         0.0000000000         0.0000000000        20.0000000000
atom         0.0000000000        0.0000000000        2.0000000000 O         0.0000000000         0.0000000000        -0.0000000000       -0.0000000000     -122.1817083987
atom         0.0000000000        0.0000000000        0.0000000000 N         0.0000000000         0.0000000000         0.0000000000        0.0000000000      122.1817083987
energy      -151.8901248006
charge 0
end
begin
comment generated by PY
lattice        12.0000000000         0.0000000000         0.0000000000
lattice         0.0000000000        12.0000000000         0.0000000000
lattice         0.0000000000         0.0000000000        20.0000000000
atom         0.0000000000        0.0000000000        2.0600000000 O         0.0000000000         0.0000000000        -0.0000000000        0.0000000000     -102.1795619984
atom         0.0000000000        0.0000000000        0.0000000000 N         0.0000000000         0.0000000000         0.0000000000       -0.0000000000      102.1795619984
energy      -145.1729868866
charge 0
end
begin
comment generated by PY
lattice        12.0000000000         0.0000000000         0.0000000000
lattice         0.0000000000        12.0000000000         0.0000000000
lattice         0.0000000000         0.0000000000        20.0000000000
atom         0.0000000000        0.0000000000        2.1200000000 O         0.0000000000         0.0000000000         0.0000000000        0.0000000000      -84.9778281191
atom         0.0000000000        0.0000000000        0.0000000000 N         0.0000000000         0.0000000000        -0.0000000000       -0.0000000000       84.9778281191
energy      -139.5724178552
charge 0
end
begin
comment generated by PY
lattice        12.0000000000         0.0000000000         0.0000000000
lattice         0.0000000000        12.0000000000         0.0000000000
lattice         0.0000000000         0.0000000000        20.0000000000
atom         0.0000000000        0.0000000000        2.1800000000 O         0.0000000000         0.0000000000         0.0000000000       -0.0000000000      -70.5134223219
atom         0.0000000000        0.0000000000        0.0000000000 N         0.0000000000         0.0000000000        -0.0000000000        0.0000000000       70.5134223219
energy      -134.9209267716
charge 0
end
begin
comment generated by PY
lattice        12.0000000000         0.0000000000         0.0000000000
lattice         0.0000000000        12.0000000000         0.0000000000
lattice         0.0000000000         0.0000000000        20.0000000000
atom         0.0000000000        0.0000000000        2.2400000000 O         0.0000000000         0.0000000000        -0.0000000000        0.0000000000      -58.5136288600
atom         0.0000000000        0.0000000000        0.0000000000 N         0.0000000000         0.0000000000         0.0000000000       -0.0000000000       58.5136288600
energy      -131.0617340776
charge 0
end
begin
comment generated by PY
lattice        12.0000000000         0.0000000000         0.0000000000
lattice         0.0000000000        12.0000000000         0.0000000000
lattice         0.0000000000         0.0000000000        20.0000000000
atom         0.0000000000        0.0000000000        2.3000000000 O         0.0000000000         0.0000000000        -0.0000000000        0.0000000000      -48.6265831012
atom         0.0000000000        0.0000000000        0.0000000000 N         0.0000000000         0.0000000000         0.0000000000       -0.0000000000       48.6265831012
energy      -127.8571762941
charge 0
end
begin
comment generated by PY
lattice        12.0000000000         0.0000000000         0.0000000000
lattice         0.0000000000        12.0000000000         0.0000000000
lattice         0.0000000000         0.0000000000        20.0000000000
atom         0.0000000000        0.0000000000        2.3600000000 O         0.0000000000         0.0000000000        -0.0000000000        0.0000000000      -40.4919508301
atom         0.0000000000        0.0000000000        0.0000000000 N         0.0000000000         0.0000000000         0.0000000000       -0.0000000000       40.4919508301
energy      -125.1914375056
charge 0
end
begin
comment generated by PY
lattice        12.0000000000         0.0000000000         0.0000000000
lattice         0.0000000000        12.0000000000         0.0000000000
lattice         0.0000000000         0.0000000000        20.0000000000
atom         0.0000000000        0.0000000000        2.4200000000 O         0.0000000000         0.0000000000         0.0000000000        0.0000000000      -33.7858793111
atom         0.0000000000        0.0000000000        0.0000000000 N         0.0000000000         0.0000000000        -0.0000000000       -0.0000000000       33.7858793111
energy      -122.9693184795
charge 0
end
begin
comment generated by PY
lattice        12.0000000000         0.0000000000         0.0000000000
lattice         0.0000000000        12.0000000000         0.0000000000
lattice         0.0000000000         0.0000000000        20.0000000000
atom         0.0000000000        0.0000000000        2.4800000000 O         0.0000000000         0.0000000000         0.0000000000       -0.0000230605      -28.2366008831
atom         0.0000000000        0.0000000000        0.0000000000 N         0.0000000000         0.0000000000        -0.0000000000        0.0000230605       28.2366008831
energy      -121.1136158220
charge 0
end
begin
comment generated by PY
lattice        12.0000000000         0.0000000000         0.0000000000
lattice         0.0000000000        12.0000000000         0.0000000000
lattice         0.0000000000         0.0000000000        20.0000000000
atom         0.0000000000        0.0000000000        2.5400000000 O         0.0000000000         0.0000000000        -0.0000000000        0.0000000000      -23.6314920886
atom         0.0000000000        0.0000000000        0.0000000000 N         0.0000000000         0.0000000000         0.0000000000       -0.0000000000       23.6314920886
energy      -119.5617544859
charge 0
end
begin
comment generated by PY
lattice        12.0000000000         0.0000000000         0.0000000000
lattice         0.0000000000        12.0000000000         0.0000000000
lattice         0.0000000000         0.0000000000        20.0000000000
atom         0.0000000000        0.0000000000        2.6000000000 O         0.0000000000         0.0000000000         0.0000000000       -0.0000000000      -19.8083622692
atom         0.0000000000        0.0000000000        0.0000000000 N         0.0000000000         0.0000000000        -0.0000000000        0.0000000000       19.8083622692
energy      -118.2620906119
charge 0
end
begin
comment generated by PY
lattice        12.0000000000         0.0000000000         0.0000000000
lattice         0.0000000000        12.0000000000         0.0000000000
lattice         0.0000000000         0.0000000000        20.0000000000
atom         0.0000000000        0.0000000000        2.6600000000 O         0.0000000000         0.0000000000         0.0000000000       -0.0000230605      -16.6512773309
atom         0.0000000000        0.0000000000        0.0000000000 N         0.0000000000         0.0000000000        -0.0000000000        0.0000230605       16.6512773309
energy      -117.1714153924
charge 0
end
begin
comment generated by PY
lattice        12.0000000000         0.0000000000         0.0000000000
lattice         0.0000000000        12.0000000000         0.0000000000
lattice         0.0000000000         0.0000000000        20.0000000000
atom         0.0000000000        0.0000000000        2.7200000000 O         0.0000000000         0.0000000000         0.0000000000       -0.0000000000      -14.0643962020
atom         0.0000000000        0.0000000000        0.0000000000 N         0.0000000000         0.0000000000        -0.0000000000        0.0000000000       14.0643962020
energy      -116.2526088728
charge 0
end
begin
comment generated by PY
lattice        12.0000000000         0.0000000000         0.0000000000
lattice         0.0000000000        12.0000000000         0.0000000000
lattice         0.0000000000         0.0000000000        20.0000000000
atom         0.0000000000        0.0000000000        2.7800000000 O         0.0000000000         0.0000000000         0.0000000000       -0.0000000000      -11.9469750155
atom         0.0000000000        0.0000000000        0.0000000000 N         0.0000000000         0.0000000000        -0.0000000000        0.0000000000       11.9469750155
energy      -115.4745656230
charge 0
end
begin
comment generated by PY
lattice        12.0000000000         0.0000000000         0.0000000000
lattice         0.0000000000        12.0000000000         0.0000000000
lattice         0.0000000000         0.0000000000        20.0000000000
atom         0.0000000000        0.0000000000        2.8400000000 O         0.0000000000         0.0000000000         0.0000000000       -0.0000000000      -10.2042973828
atom         0.0000000000        0.0000000000        0.0000000000 N         0.0000000000         0.0000000000        -0.0000000000        0.0000000000       10.2042973828
energy      -114.8117872721
charge 0
end
begin
comment generated by PY
lattice        12.0000000000         0.0000000000         0.0000000000
lattice         0.0000000000        12.0000000000         0.0000000000
lattice         0.0000000000         0.0000000000        20.0000000000
atom         0.0000000000        0.0000000000        2.9000000000 O         0.0000000000         0.0000000000        -0.0000230605        0.0000230605       -8.7432202223
atom         0.0000000000        0.0000000000        0.0000000000 N         0.0000000000         0.0000000000         0.0000230605       -0.0000230605        8.7432202223
energy      -114.2446639840
charge 0
end
begin
comment generated by PY
lattice        12.0000000000         0.0000000000         0.0000000000
lattice         0.0000000000        12.0000000000         0.0000000000
lattice         0.0000000000         0.0000000000        20.0000000000
atom         0.0000000000        0.0000000000        2.9600000000 O         0.0000000000         0.0000000000        -0.0000461211       -0.0000000000       -7.4997170215
atom         0.0000000000        0.0000000000        0.0000000000 N         0.0000000000         0.0000000000         0.0000461211        0.0000000000        7.4997170215
energy      -113.7582774235
charge 0
end
begin
comment generated by PY
lattice        12.0000000000         0.0000000000         0.0000000000
lattice         0.0000000000        12.0000000000         0.0000000000
lattice         0.0000000000         0.0000000000        20.0000000000
atom         0.0000000000        0.0000000000        3.0200000000 O         0.0000000000         0.0000000000        -0.0000691816       -0.0000000000       -6.4254447496
atom         0.0000000000        0.0000000000        0.0000000000 N         0.0000000000         0.0000000000         0.0000691816        0.0000000000        6.4254447496
energy      -113.3411126992
charge 0
end
begin
comment generated by PY
lattice        12.0000000000         0.0000000000         0.0000000000
lattice         0.0000000000        12.0000000000         0.0000000000
lattice         0.0000000000         0.0000000000        20.0000000000
atom         0.0000000000        0.0000000000        3.0800000000 O         0.0000000000         0.0000000000        -0.0001844844        0.0000691816       -5.4942336576
atom         0.0000000000        0.0000000000        0.0000000000 N         0.0000000000         0.0000000000         0.0001844844       -0.0000691816        5.4942336576
energy      -112.9840042554
charge 0
end
begin
comment generated by PY
lattice        12.0000000000         0.0000000000         0.0000000000
lattice         0.0000000000        12.0000000000         0.0000000000
lattice         0.0000000000         0.0000000000        20.0000000000
atom         0.0000000000        0.0000000000        3.1400000000 O         0.0000000000         0.0000000000        -0.0000461211        0.0000461211       -4.6861059853
atom         0.0000000000        0.0000000000        0.0000000000 N         0.0000000000         0.0000000000         0.0000461211       -0.0000461211        4.6861059853
energy      -112.6790480495
charge 0
end
begin
comment generated by PY
lattice        12.0000000000         0.0000000000         0.0000000000
lattice         0.0000000000        12.0000000000         0.0000000000
lattice         0.0000000000         0.0000000000        20.0000000000
atom         0.0000000000        0.0000000000        3.2000000000 O         0.0000000000         0.0000000000        -0.0001383633        0.0001383633       -3.9868897186
atom         0.0000000000        0.0000000000        0.0000000000 N         0.0000000000         0.0000000000         0.0001383633       -0.0001383633        3.9868897186
energy      -112.4192637779
charge 0
end
begin
comment generated by PY
lattice        12.0000000000         0.0000000000         0.0000000000
lattice         0.0000000000        12.0000000000         0.0000000000
lattice         0.0000000000         0.0000000000        20.0000000000
atom         0.0000000000        0.0000000000        3.2600000000 O         0.0000000000         0.0000000000        -0.0000691816        0.0001153027       -3.3849965371
atom         0.0000000000        0.0000000000        0.0000000000 N         0.0000000000         0.0000000000         0.0000691816       -0.0001153027        3.3849965371
energy      -112.1986043493
charge 0
end
begin
comment generated by PY
lattice        12.0000000000         0.0000000000         0.0000000000
lattice         0.0000000000        12.0000000000         0.0000000000
lattice         0.0000000000         0.0000000000        20.0000000000
atom         0.0000000000        0.0000000000        3.3200000000 O         0.0000000000         0.0000000000        -0.0001153027        0.0001614238       -2.8690180009