begin
comment generated by PY
lattice        12.0000000000         0.0000000000         0.0000000000
lattice         0.0000000000        12.0000000000         0.0000000000
lattice         0.0000000000         0.0000000000        20.0000000000
atom         0.0000000000        0.0000000000        0.0000000000 H         0.0000000000         0.0000000000        -0.0000461211       -0.0000922422   -18521.5526407544
atom         0.0000000000        0.0000000000        0.3000000000 O         0.0000000000         0.0000000000         0.0000461211        0.0000922422    18521.5526407544
energy      2112.1235687220
charge 0
end
begin
comment generated by PY
lattice        12.0000000000         0.0000000000         0.0000000000
lattice         0.0000000000        12.0000000000         0.0000000000
lattice         0.0000000000         0.0000000000        20.0000000000
atom         0.0000000000        0.0000000000        0.0000000000 H         0.0000000000         0.0000000000         0.0000000000       -0.0000230605   -11533.6142947157
atom         0.0000000000        0.0000000000        0.3600000000 O         0.0000000000         0.0000000000        -0.0000000000        0.0000230605    11533.6142947157
energy      1229.3352285680
charge 0
end
begin
comment generated by PY
lattice        12.0000000000         0.0000000000         0.0000000000
lattice         0.0000000000        12.0000000000         0.0000000000
lattice         0.0000000000         0.0000000000        20.0000000000
atom         0.0000000000        0.0000000000        0.0000000000 H         0.0000000000         0.0000000000         0.0000000000       -0.0000000000    -7329.3208366477
atom         0.0000000000        0.0000000000        0.4200000000 O         0.0000000000         0.0000000000        -0.0000000000        0.0000000000     7329.3208366477
energy       673.2977248125
charge 0
end
begin
comment generated by PY
lattice        12.0000000000         0.0000000000         0.0000000000
lattice         0.0000000000        12.0000000000         0.0000000000
lattice         0.0000000000         0.0000000000        20.0000000000
atom         0.0000000000        0.0000000000        0.0000000000 H         0.0000000000         0.0000000000         0.0000000000       -0.0000000000    -4658.5230346195
atom         0.0000000000        0.0000000000        0.4800000000 O         0.0000000000         0.0000000000        -0.0000000000        0.0000000000     4658.5230346195
energy       319.4091523293
charge 0
end
begin
comment generated by PY
lattice        12.0000000000         0.0000000000         0.0000000000
lattice         0.0000000000        12.0000000000         0.0000000000
lattice         0.0000000000         0.0000000000        20.0000000000
atom         0.0000000000        0.0000000000        0.0000000000 H         0.0000000000         0.0000000000        -0.0000000000        0.0000000000    -2920.4411726256
atom         0.0000000000        0.0000000000        0.5400000000 O         0.0000000000         0.0000000000         0.0000000000       -0.0000000000     2920.4411726256
energy        95.6650537930
charge 0
end
begin
comment generated by PY
lattice        12.0000000000         0.0000000000         0.0000000000
lattice         0.0000000000        12.0000000000         0.0000000000
lattice         0.0000000000         0.0000000000        20.0000000000
atom         0.0000000000        0.0000000000        0.0000000000 H         0.0000000000         0.0000000000         0.0000000000       -0.0000000000    -1785.7507707880
atom         0.0000000000        0.0000000000        0.6000000000 O         0.0000000000         0.0000000000        -0.0000000000        0.0000000000     1785.7507707880
energy       -43.1424580856
charge 0
end
begin
comment generated by PY
lattice        12.0000000000         0.0000000000         0.0000000000
lattice         0.0000000000        12.0000000000         0.0000000000
lattice         0.0000000000         0.0000000000        20.0000000000
atom         0.0000000000        0.0000000000        0.0000000000 H         0.0000000000         0.0000000000         0.0000000000        0.0000000000    -1050.2289821004
atom         0.0000000000        0.0000000000        0.6600000000 O         0.0000000000         0.0000000000        -0.0000000000       -0.0000000000     1050.2289821004
energy      -126.6559591303
charge 0
end
begin
comment generated by PY
lattice        12.0000000000         0.0000000000         0.0000000000
lattice         0.0000000000        12.0000000000         0.0000000000
lattice         0.0000000000         0.0000000000        20.0000000000
atom         0.0000000000        0.0000000000        0.0000000000 H         0.0000000000         0.0000000000         0.0000000000       -0.0000000000     -577.8534239888
atom         0.0000000000        0.0000000000        0.7200000000 O         0.0000000000         0.0000000000        -0.0000000000        0.0000000000      577.8534239888
energy      -174.4768843894
charge 0
end
begin
comment generated by PY
lattice        12.0000000000         0.0000000000         0.0000000000
lattice         0.0000000000        12.0000000000         0.0000000000
lattice         0.0000000000         0.0000000000        20.0000000000
atom         0.0000000000        0.0000000000        0.0000000000 H         0.0000000000         0.0000000000        -0.0000000000        0.0000000000     -277.6824351653
atom         0.0000000000        0.0000000000        0.7800000000 O         0.0000000000         0.0000000000         0.0000000000       -0.0000000000      277.6824351653
energy      -199.4801049861
charge 0
end
begin
comment generated by PY
lattice        12.0000000000         0.0000000000         0.0000000000
lattice         0.0000000000        12.0000000000         0.0000000000
lattice         0.0000000000         0.0000000000        20.0000000000
atom         0.0000000000        0.0000000000        0.0000000000 H         0.0000000000         0.0000000000         0.0000000000        0.0000000000      -89.7158123441
atom         0.0000000000        0.0000000000        0.8400000000 O         0.0000000000         0.0000000000        -0.0000000000       -0.0000000000       89.7158123441
energy      -210.0740748840
charge 0
end
begin
comment generated by PY
lattice        12.0000000000         0.0000000000         0.0000000000
lattice         0.0000000000        12.0000000000         0.0000000000
lattice         0.0000000000         0.0000000000        20.0000000000
atom         0.0000000000        0.0000000000        0.0000000000 H         0.0000000000         0.0000000000         0.0000000000        0.0000000000       25.7784435686
atom         0.0000000000        0.0000000000        0.9000000000 O         0.0000000000         0.0000000000        -0.0000000000       -0.0000000000      -25.7784435686
energy      -211.7198127180
charge 0
end
begin
comment generated by PY
lattice        12.0000000000         0.0000000000         0.0000000000
lattice         0.0000000000        12.0000000000         0.0000000000
lattice         0.0000000000         0.0000000000        20.0000000000
atom         0.0000000000        0.0000000000        0.0000000000 H         0.0000000000         0.0000000000        -0.0000000000        0.0000000000       95.1875910720
atom         0.0000000000        0.0000000000        0.9600000000 O         0.0000000000         0.0000000000         0.0000000000       -0.0000000000      -95.1875910720
energy      -207.9205404561
charge 0
end
begin
comment generated by PY
lattice        12.0000000000         0.0000000000         0.0000000000
lattice         0.0000000000        12.0000000000         0.0000000000
lattice         0.0000000000         0.0000000000        20.0000000000
atom         0.0000000000        0.0000000000        0.0000000000 H         0.0000000000         0.0000000000        -0.0000000000       -0.0000000000      135.6290093444
atom         0.0000000000        0.0000000000        1.0200000000 O         0.0000000000         0.0000000000         0.0000000000        0.0000000000     -135.6290093444
energy      -200.8903351481
charge 0
end
begin
comment generated by PY
lattice        12.0000000000         0.0000000000         0.0000000000
lattice         0.0000000000        12.0000000000         0.0000000000
lattice         0.0000000000         0.0000000000        20.0000000000
atom         0.0000000000        0.0000000000        0.0000000000 H         0.0000000000         0.0000000000        -0.0000000000        0.0000000000      157.8422052721
atom         0.0000000000        0.0000000000        1.0800000000 O         0.0000000000         0.0000000000         0.0000000000       -0.0000000000     -157.8422052721
energy      -192.0203345711
charge 0
end
begin
comment generated by PY
lattice        12.0000000000         0.0000000000         0.0000000000
lattice         0.0000000000        12.0000000000         0.0000000000
lattice         0.0000000000         0.0000000000        20.0000000000
atom         0.0000000000        0.0000000000        0.0000000000 H         0.0000000000         0.0000000000         0.0000000000        0.0000000000      168.4456946225
atom         0.0000000000        0.0000000000        1.1400000000 O         0.0000000000         0.0000000000        -0.0000000000       -0.0000000000     -168.4456946225
energy      -182.1903569405
charge 0
end
begin
comment generated by PY
lattice        12.0000000000         0.0000000000         0.0000000000
lattice         0.0000000000        12.0000000000         0.0000000000
lattice         0.0000000000         0.0000000000        20.0000000000
atom         0.0000000000        0.0000000000        0.0000000000 H         0.0000000000         0.0000000000         0.0000000000        0.0000000000      171.5584860767
atom         0.0000000000        0.0000000000        1.2000000000 O         0.0000000000         0.0000000000        -0.0000000000       -0.0000000000     -171.5584860767
energy      -171.9642102987
charge 0
end
begin
comment generated by PY
lattice        12.0000000000         0.0000000000         0.0000000000
lattice         0.0000000000        12.0000000000         0.0000000000
lattice         0.0000000000         0.0000000000        20.0000000000
atom         0.0000000000        0.0000000000        0.0000000000 H         0.0000000000         0.0000000000         0.0000000000       -0.0000000000      169.7966375838
atom         0.0000000000        0.0000000000        1.2600000000 O         0.0000000000         0.0000000000        -0.0000000000        0.0000000000     -169.7966375838
energy      -161.7071672304
charge 0
end
begin
comment generated by PY
lattice        12.0000000000         0.0000000000         0.0000000000
lattice         0.0000000000        12.0000000000         0.0000000000
lattice         0.0000000000         0.0000000000        20.0000000000
atom         0.0000000000        0.0000000000        0.0000000000 H         0.0000000000         0.0000000000        -0.0000000000        0.0000000000      164.8602624916
atom         0.0000000000        0.0000000000        1.3200000000 O         0.0000000000         0.0000000000         0.0000000000       -0.0000000000     -164.8602624916
energy      -151.6573797472
charge 0
end
begin
comment generated by PY
lattice        12.0000000000         0.0000000000         0.0000000000
lattice         0.0000000000        12.0000000000         0.0000000000
lattice         0.0000000000         0.0000000000        20.0000000000
atom         0.0000000000        0.0000000000        0.0000000000 H         0.0000000000         0.0000000000        -0.0000000000        0.0000000000      157.8792766510
atom         0.0000000000        0.0000000000        1.3800000000 O         0.0000000000         0.0000000000         0.0000000000       -0.0000000000     -157.8792766510
energy      -141.9693032407
charge 0
end
begin
comment generated by PY
lattice        12.0000000000         0.0000000000         0.0000000000
lattice         0.0000000000        12.0000000000         0.0000000000
lattice         0.0000000000         0.0000000000        20.0000000000
atom         0.0000000000        0.0000000000        0.0000000000 H         0.0000000000         0.0000000000        -0.0000000000        0.0000000000      149.6199927558
atom         0.0000000000        0.0000000000        1.4400000000 O         0.0000000000         0.0000000000         0.0000000000       -0.0000000000     -149.6199927558
energy      -132.7411088733
charge 0
end
begin
comment generated by PY
lattice        12.0000000000         0.0000000000         0.0000000000
lattice         0.0000000000        12.0000000000         0.0000000000
lattice         0.0000000000         0.0000000000        20.0000000000
atom         0.0000000000        0.0000000000        0.0000000000 H         0.0000000000         0.0000000000        -0.0000000000       -0.0000000000      140.5586938977
atom         0.0000000000        0.0000000000        1.5000000000 O         0.0000000000         0.0000000000         0.0000000000        0.0000000000     -140.5586938977
energy      -124.0337973838
charge 0
end
begin
comment generated by PY
lattice        12.0000000000         0.0000000000         0.0000000000
lattice         0.0000000000        12.0000000000         0.0000000000
lattice         0.0000000000         0.0000000000        20.0000000000
atom         0.0000000000        0.0000000000        0.0000000000 H         0.0000000000         0.0000000000         0.0000000000        0.0000000000      130.8639729000
atom         0.0000000000        0.0000000000        1.5600000000 O         0.0000000000         0.0000000000        -0.0000000000       -0.0000000000     -130.8639729000
energy      -115.8888112126
charge 0
end
begin
comment generated by PY
lattice        12.0000000000         0.0000000000         0.0000000000
lattice         0.0000000000        12.0000000000         0.0000000000
lattice         0.0000000000         0.0000000000        20.0000000000
atom         0.0000000000        0.0000000000        0.0000000000 H         0.0000000000         0.0000000000        -0.0000000000       -0.0000000000      120.3197607726
atom         0.0000000000        0.0000000000        1.6200000000 O         0.0000000000         0.0000000000         0.0000000000        0.0000000000     -120.3197607726
energy      -108.3485654235
charge 0
end
begin
comment generated by PY
lattice        12.0000000000         0.0000000000         0.0000000000
lattice         0.0000000000        12.0000000000         0.0000000000
lattice         0.0000000000         0.0000000000        20.0000000000
atom         0.0000000000        0.0000000000        0.0000000000 H         0.0000000000         0.0000000000        -0.0000000000       -0.0000000000      108.3870260005
atom         0.0000000000        0.0000000000        1.6800000000 O         0.0000000000         0.0000000000         0.0000000000        0.0000000000     -108.3870260005
energy      -101.4798121101
charge 0
end
begin
comment generated by PY
lattice        12.0000000000         0.0000000000         0.0000000000
lattice         0.0000000000        12.0000000000         0.0000000000
lattice         0.0000000000         0.0000000000        20.0000000000
atom         0.0000000000        0.0000000000        0.0000000000 H         0.0000000000         0.0000000000         0.0000000000       -0.0000000000       95.0571067503
atom         0.0000000000        0.0000000000        1.7400000000 O         0.0000000000         0.0000000000        -0.0000000000        0.0000000000      -95.0571067503
energy       -95.3722644870
charge 0
end
begin
comment generated by PY
lattice        12.0000000000         0.0000000000         0.0000000000
lattice         0.0000000000        12.0000000000         0.0000000000
lattice         0.0000000000         0.0000000000        20.0000000000
atom         0.0000000000        0.0000000000        0.0000000000 H         0.0000000000         0.0000000000        -0.0000000000        0.0000000000       81.5494899261
atom         0.0000000000        0.0000000000        1.8000000000 O         0.0000000000         0.0000000000         0.0000000000       -0.0000000000      -81.5494899261
energy       -90.0773538241
charge 0
end
begin
comment generated by PY
lattice        12.0000000000         0.0000000000         0.0000000000
lattice         0.0000000000        12.0000000000         0.0000000000
lattice         0.0000000000         0.0000000000        20.0000000000
atom         0.0000000000        0.0000000000        0.0000000000 H         0.0000000000         0.0000000000         0.0000000000       -0.0000000000       69.0848487047
atom         0.0000000000        0.0000000000        1.8600000000 O         0.0000000000         0.0000000000        -0.0000000000        0.0000000000      -69.0848487047
energy       -85.5658068681
charge 0
end
begin
comment generated by PY
lattice        12.0000000000         0.0000000000         0.0000000000
lattice         0.0000000000        12.0000000000         0.0000000000
lattice         0.0000000000         0.0000000000        20.0000000000
atom         0.0000000000        0.0000000000        0.0000000000 H         0.0000000000         0.0000000000        -0.0000000000       -0.0000000000       58.1644636177
atom         0.0000000000        0.0000000000        1.9200000000 O         0.0000000000         0.0000000000         0.0000000000        0.0000000000      -58.1644636177
energy       -81.7569107575
charge 0
end
begin
comment generated by PY
lattice        12.0000000000         0.0000000000         0.0000000000
lattice         0.0000000000        12.0000000000         0.0000000000
lattice         0.0000000000         0.0000000000        20.0000000000
atom         0.0000000000        0.0000000000        0.0000000000 H         0.0000000000         0.0000000000        -0.0000000000       -0.0000000000       48.8450138245
atom         0.0000000000        0.0000000000        1.9800000000 O         0.0000000000         0.0000000000         0.0000000000        0.0000000000      -48.8450138245
energy       -78.5549388687
charge 0
end
begin
comment generated by PY
lattice        12.0000000000         0.0000000000         0.0000000000
lattice         0.0000000000        12.0000000000         0.0000000000
lattice         0.0000000000         0.0000000000        20.0000000000
atom         0.0000000000        0.0000000000        0.0000000000 H         0.0000000000         0.0000000000         0.0000000000        0.0000000000       41.0030474733
atom         0.0000000000        0.0000000000        2.0400000000 O         0.0000000000         0.0000000000        -0.0000000000       -0.0000000000      -41.0030474733
energy       -75.8668984108
charge 0
end
begin
comment generated by PY
lattice        12.0000000000         0.0000000000         0.0000000000
lattice         0.0000000000        12.0000000000         0.0000000000
lattice         0.0000000000         0.0000000000        20.0000000000
atom         0.0000000000        0.0000000000        0.0000000000 H         0.0000000000         0.0000000000        -0.0000000000       -0.0000000000       34.4530922794
atom         0.0000000000        0.0000000000        2.1000000000 O         0.0000000000         0.0000000000         0.0000000000        0.0000000000      -34.4530922794
energy       -73.6095000406
charge 0
end
begin
comment generated by PY
lattice        12.0000000000         0.0000000000         0.0000000000
lattice         0.0000000000        12.0000000000         0.0000000000
lattice         0.0000000000         0.0000000000        20.0000000000
atom         0.0000000000        0.0000000000        0.0000000000 H         0.0000000000         0.0000000000        -0.0000000000        0.0000000000       29.0027118382
atom         0.0000000000        0.0000000000        2.1600000000 O         0.0000000000         0.0000000000         0.0000000000       -0.0000000000      -29.0027118382
energy       -71.7110434621
charge 0
end
begin
comment generated by PY
lattice        12.0000000000         0.0000000000         0.0000000000
lattice         0.0000000000        12.0000000000         0.0000000000
lattice         0.0000000000         0.0000000000        20.0000000000
atom         0.0000000000        0.0000000000        0.0000000000 H         0.0000000000         0.0000000000         0.0000000000       -0.0000000000       24.4848099960
atom         0.0000000000        0.0000000000        2.2200000000 O         0.0000000000         0.0000000000        -0.0000000000        0.0000000000      -24.4848099960
energy       -70.1106821285
charge 0
end
begin
comment generated by PY
lattice        12.0000000000         0.0000000000         0.0000000000
lattice         0.0000000000        12.0000000000         0.0000000000
lattice         0.0000000000         0.0000000000        20.0000000000
atom         0.0000000000        0.0000000000        0.0000000000 H         0.0000000000         0.0000000000         0.0000000000        0.0000000000       33.1414277365
atom         0.0000000000        0.0000000000        2.2800000000 O         0.0000000000         0.0000000000        -0.0000000000       -0.0000000000      -33.1414277365
energy       -55.3243197198
charge 0
end
begin
comment generated by PY
lattice        12.0000000000         0.0000000000         0.0000000000
lattice         0.0000000000        12.0000000000         0.0000000000
lattice         0.0000000000         0.0000000000        20.0000000000
atom         0.0000000000        0.0000000000        0.0000000000 H         0.0000000000         0.0000000000        -0.0000000000       -0.0000000000       29.9409994530
atom         0.0000000000        0.0000000000        2.3400000000 O         0.0000000000         0.0000000000         0.0000000000        0.0000000000      -29.9409994530
energy       -53.4365216703
charge 0
end
begin
comment generated by PY
lattice        12.0000000000         0.0000000000         0.0000000000
lattice         0.0000000000        12.0000000000         0.0000000000
lattice         0.0000000000         0.0000000000        20.0000000000
atom         0.0000000000        0.0000000000        0.0000000000 H         0.0000000000         0.0000000000        -0.0000000000       -0.0000000000       27.1666773227
atom         0.0000000000        0.0000000000        2.4000000000 O         0.0000000000         0.0000000000         0.0000000000        0.0000000000      -27.1666773227
energy       -51.7276782852
charge 0
end
begin
comment generated by PY
lattice        12.0000000000         0.0000000000         0.0000000000
lattice         0.0000000000        12.0000000000         0.0000000000
lattice         0.0000000000         0.0000000000        20.0000000000
atom         0.0000000000        0.0000000000        0.0000000000 H         0.0000000000         0.0000000000         0.0000000000       -0.0000000000       24.7257669477
atom         0.0000000000        0.0000000000        2.4600000000 O         0.0000000000         0.0000000000        -0.0000000000        0.0000000000      -24.7257669477
energy       -50.1747084448
charge 0
end
begin
comment generated by PY
lattice        12.0000000000         0.0000000000         0.0000000000
lattice         0.0000000000        12.0000000000         0.0000000000
lattice         0.0000000000         0.0000000000        20.0000000000
atom         0.0000000000        0.0000000000        0.0000000000 H         0.0000000000         0.0000000000        -0.0000000000       -0.0000000000       22.5355116009
atom         0.0000000000        0.0000000000        2.5200000000 O         0.0000000000         0.0000000000         0.0000000000        0.0000000000      -22.5355116009
energy       -48.7598155941
charge 0
end
begin
comment generated by PY
lattice        12.0000000000         0.0000000000         0.0000000000
lattice         0.0000000000        12.0000000000         0.0000000000
lattice         0.0000000000         0.0000000000        20.0000000000
atom         0.0000000000        0.0000000000        0.0000000000 H         0.0000000000         0.0000000000         0.0000000000        0.0000000000       20.5389416702
atom         0.0000000000        0.0000000000        2.5800000000 O         0.0000000000         0.0000000000        -0.0000000000       -0.0000000000      -20.5389416702
energy       -47.4684981740
charge 0
end
begin
comment generated by PY
lattice        12.0000000000         0.0000000000         0.0000000000
lattice         0.0000000000        12.0000000000         0.0000000000
lattice         0.0000000000         0.0000000000        20.0000000000
atom         0.0000000000        0.0000000000        0.0000000000 H         0.0000000000         0.0000000000        -0.0000000000        0.0000000000       18.6972217830
atom         0.0000000000        0.0000000000        2.6400000000 O         0.0000000000         0.0000000000         0.0000000000       -0.0000000000      -18.6972217830
energy       -46.2876124345
charge 0
end
begin
comment generated by PY
lattice        12.0000000000         0.0000000000         0.0000000000
lattice         0.0000000000        12.0000000000         0.0000000000
lattice         0.0000000000         0.0000000000        20.0000000000
atom         0.0000000000        0.0000000000        0.0000000000 H         0.0000000000         0.0000000000         0.0000230605        0.0000230605       16.9727378691
atom         0.0000000000        0.0000000000        2.7000000000 O         0.0000000000         0.0000000000        -0.0000230605       -0.0000230605      -16.9727378691
energy       -45.2041087879
charge 0
end
begin
comment generated by PY
lattice        12.0000000000         0.0000000000         0.0000000000
lattice         0.0000000000        12.0000000000         0.0000000000
lattice         0.0000000000         0.0000000000        20.0000000000
atom         0.0000000000        0.0000000000        0.0000000000 H         0.0000000000         0.0000000000        -0.0000000000       -0.0000000000       15.2785880457
atom         0.0000000000        0.0000000000        2.7600000000 O         0.0000000000         0.0000000000         0.0000000000        0.0000000000      -15.2785880457
energy       -44.2029147777
charge 0
end
begin
comment generated by PY
lattice        12.0000000000         0.0000000000         0.0000000000
lattice         0.0000000000        12.0000000000         0.0000000000
lattice         0.0000000000         0.0000000000        20.0000000000
atom         0.0000000000        0.0000000000        0.0000000000 H         0.0000000000         0.0000000000        -0.0000000000        0.0000000000       10.3436479016
atom         0.0000000000        0.0000000000        2.8200000000 O         0.0000000000         0.0000000000         0.0000000000       -0.0000000000      -10.3436479016
energy       -43.2116684632
charge 0
end
begin
comment generated by PY
lattice        12.0000000000         0.0000000000         0.0000000000
lattice         0.0000000000        12.0000000000         0.0000000000
lattice         0.0000000000         0.0000000000        20.0000000000
atom         0.0000000000        0.0000000000        0.0000000000 H         0.0000000000         0.0000000000        -0.0000230605       -0.0000000000        7.4922978148
atom         0.0000000000        0.0000000000        2.8800000000 O         0.0000000000         0.0000000000         0.0000230605        0.0000000000       -7.4922978148
energy       -42.7771146808
charge 0
end
begin
comment generated by PY
lattice        12.0000000000         0.0000000000         0.0000000000
lattice         0.0000000000        12.0000000000         0.0000000000
lattice         0.0000000000         0.0000000000        20.0000000000
atom         0.0000000000        0.0000000000        0.0000000000 H         0.0000000000         0.0000000000        -0.0000230605        0.0000000000        5.8626179791
atom         0.0000000000        0.0000000000        2.9400000000 O         0.0000000000         0.0000000000         0.0000230605       -0.0000000000       -5.8626179791
energy       -42.4508141568
charge 0
end
begin
comment generated by PY
lattice        12.0000000000         0.0000000000         0.0000000000
lattice         0.0000000000        12.0000000000         0.0000000000
lattice         0.0000000000         0.0000000000        20.0000000000
atom         0.0000000000        0.0000000000        0.0000000000 H         0.0000000000         0.0000000000        -0.0000230605       -0.0000000000        4.6766739541
atom         0.0000000000        0.0000000000        3.0000000000 O         0.0000000000         0.0000000000         0.0000230605        0.0000000000       -4.6766739541
energy       -42.1958211583
charge 0
end
begin
comment generated by PY
lattice        12.0000000000         0.0000000000         0.0000000000
lattice         0.0000000000        12.0000000000         0.0000000000
lattice         0.0000000000         0.0000000000        20.0000000000
atom         0.0000000000        0.0000000000        0.0000000000 H         0.0000000000         0.0000000000        -0.0000230605       -0.0000230605        3.7658441903
atom         0.0000000000        0.0000000000        3.0600000000 O         0.0000000000         0.0000000000         0.0000230605        0.0000230605       -3.7658441903
energy       -41.9946101452
charge 0
end
begin
comment generated by PY
lattice        12.0000000000         0.0000000000         0.0000000000
lattice         0.0000000000        12.0000000000         0.0000000000
lattice         0.0000000000         0.0000000000        20.0000000000
atom         0.0000000000        0.0000000000        0.0000000000 H         0.0000000000         0.0000000000        -0.0000000000       -0.0000000000        3.0499214926