begin
comment generated by PY
lattice        12.0000000000         0.0000000000         0.0000000000
lattice         0.0000000000        12.0000000000         0.0000000000
lattice         0.0000000000         0.0000000000        20.0000000000
atom         0.0000000000        0.0000000000        0.0000000000 O         0.0000000000         0.0000000000         0.0002997871       -0.0002767266   -29044.6389726633
atom         0.0000000000        0.0000000000        0.5000000000 O         0.0000000000         0.0000000000        -0.0002997871        0.0002767266    29044.6389726633
energy      3754.5341347460
charge 0
end
begin
comment generated by PY
lattice        12.0000000000         0.0000000000         0.0000000000
lattice         0.0000000000        12.0000000000         0.0000000000
lattice         0.0000000000         0.0000000000        20.0000000000
atom         0.0000000000        0.0000000000        0.0000000000 O         0.0000000000         0.0000000000         0.0014989356       -0.0001383633   -19387.2863904956
atom         0.0000000000        0.0000000000        0.5600000000 O         0.0000000000         0.0000000000        -0.0014989356        0.0001383633    19387.2863904956
energy      2320.6792171137
charge 0
end
begin
comment generated by PY
lattice        12.0000000000         0.0000000000         0.0000000000
lattice         0.0000000000        12.0000000000         0.0000000000
lattice         0.0000000000         0.0000000000        20.0000000000
atom         0.0000000000        0.0000000000        0.0000000000 O         0.0000000000         0.0000000000        -0.0005534532        0.0004150899   -12884.4526643153
atom         0.0000000000        0.0000000000        0.6200000000 O         0.0000000000         0.0000000000         0.0005534532       -0.0004150899    12884.4526643153
energy      1364.7977610098
charge 0
end
begin
comment generated by PY
lattice        12.0000000000         0.0000000000         0.0000000000
lattice         0.0000000000        12.0000000000         0.0000000000
lattice         0.0000000000         0.0000000000        20.0000000000
atom         0.0000000000        0.0000000000        0.0000000000 O         0.0000000000         0.0000000000        -0.0007148770        0.0002306055    -8489.9805901516
atom         0.0000000000        0.0000000000        0.6800000000 O         0.0000000000         0.0000000000         0.0007148770       -0.0002306055     8489.9805901516
energy       731.5979610435
charge 0
end
begin
comment generated by PY
lattice        12.0000000000         0.0000000000         0.0000000000
lattice         0.0000000000        12.0000000000         0.0000000000
lattice         0.0000000000         0.0000000000        20.0000000000
atom         0.0000000000        0.0000000000        0.0000000000 O         0.0000000000         0.0000000000        -0.0000230605       -0.0000230605    -5531.1633026966
atom         0.0000000000        0.0000000000        0.7400000000 O         0.0000000000         0.0000000000         0.0000230605        0.0000230605     5531.1633026966
energy       316.1823618177
charge 0
end
begin
comment generated by PY
lattice        12.0000000000         0.0000000000         0.0000000000
lattice         0.0000000000        12.0000000000         0.0000000000
lattice         0.0000000000         0.0000000000        20.0000000000
atom         0.0000000000        0.0000000000        0.0000000000 O         0.0000000000         0.0000000000        -0.0000000000       -0.0000230605    -3532.8384083208
atom         0.0000000000        0.0000000000        0.8000000000 O         0.0000000000         0.0000000000         0.0000000000        0.0000230605     3532.8384083208
energy        48.2014200213
charge 0
end
begin
comment generated by PY
lattice        12.0000000000         0.0000000000         0.0000000000
lattice         0.0000000000        12.0000000000         0.0000000000
lattice         0.0000000000         0.0000000000        20.0000000000
atom         0.0000000000        0.0000000000        0.0000000000 O         0.0000000000         0.0000000000         0.0000230605        0.0000230605    -2197.1812433787
atom         0.0000000000        0.0000000000        0.8600000000 O         0.0000000000         0.0000000000        -0.0000230605       -0.0000230605     2197.1812433787
energy      -121.0078299461
charge 0
end
begin
comment generated by PY
lattice        12.0000000000         0.0000000000         0.0000000000
lattice         0.0000000000        12.0000000000         0.0000000000
lattice         0.0000000000         0.0000000000        20.0000000000
atom         0.0000000000        0.0000000000        0.0000000000 O         0.0000000000         0.0000000000        -0.0000000000       -0.0000000000    -1305.0197426696
atom         0.0000000000        0.0000000000        0.9200000000 O         0.0000000000         0.0000000000         0.0000000000        0.0000000000     1305.0197426696
energy      -224.2832477777
charge 0
end
begin
comment generated by PY
lattice        12.0000000000         0.0000000000         0.0000000000
lattice         0.0000000000        12.0000000000         0.0000000000
lattice         0.0000000000         0.0000000000        20.0000000000
atom         0.0000000000        0.0000000000        0.0000000000 O         0.0000000000         0.0000000000        -0.0000230605        0.0000000000     -708.6616759401
atom         0.0000000000        0.0000000000        0.9800000000 O         0.0000000000         0.0000000000         0.0000230605       -0.0000000000      708.6616759401
energy      -283.4950348555
charge 0
end
begin
comment generated by PY
lattice        12.0000000000         0.0000000000         0.0000000000
lattice         0.0000000000        12.0000000000         0.0000000000
lattice         0.0000000000         0.0000000000        20.0000000000
atom         0.0000000000        0.0000000000        0.0000000000 O         0.0000000000         0.0000000000         0.0000000000       -0.0000000000     -312.1176158542
atom         0.0000000000        0.0000000000        1.0400000000 O         0.0000000000         0.0000000000        -0.0000000000        0.0000000000      312.1176158542
energy      -313.2998448908
charge 0
end
begin
comment generated by PY
lattice        12.0000000000         0.0000000000         0.0000000000
lattice         0.0000000000        12.0000000000         0.0000000000
lattice         0.0000000000         0.0000000000        20.0000000000
atom         0.0000000000        0.0000000000        0.0000000000 O         0.0000000000         0.0000000000         0.0000000000       -0.0000000000      -53.1302911966
atom         0.0000000000        0.0000000000        1.1000000000 O         0.0000000000         0.0000000000        -0.0000000000        0.0000000000       53.1302911966
energy      -323.6890518906
charge 0
end
begin
comment generated by PY
lattice        12.0000000000         0.0000000000         0.0000000000
lattice         0.0000000000        12.0000000000         0.0000000000
lattice         0.0000000000         0.0000000000        20.0000000000
atom         0.0000000000        0.0000000000        0.0000000000 O         0.0000000000         0.0000000000        -0.0000000000        0.0000000000      110.3639000560
atom         0.0000000000        0.0000000000        1.1600000000 O         0.0000000000         0.0000000000         0.0000000000       -0.0000000000     -110.3639000560
energy      -321.5781930399
charge 0
end
begin
comment generated by PY
lattice        12.0000000000         0.0000000000         0.0000000000
lattice         0.0000000000        12.0000000000         0.0000000000
lattice         0.0000000000         0.0000000000        20.0000000000
atom         0.0000000000        0.0000000000        0.0000000000 O         0.0000000000         0.0000000000         0.0000000000        0.0000000000      208.3346124570
atom         0.0000000000        0.0000000000        1.2200000000 O         0.0000000000         0.0000000000        -0.0000000000       -0.0000000000     -208.3346124570
energy      -311.7507347186
charge 0
end
begin
comment generated by PY
lattice        12.0000000000         0.0000000000         0.0000000000
lattice         0.0000000000        12.0000000000         0.0000000000
lattice         0.0000000000         0.0000000000        20.0000000000
atom         0.0000000000        0.0000000000        0.0000000000 O         0.0000000000         0.0000000000         0.0000000000       -0.0000230605      262.7259891038
atom         0.0000000000        0.0000000000        1.2800000000 O         0.0000000000         0.0000000000        -0.0000000000        0.0000230605     -262.7259891038
energy      -297.4457218693
charge 0
end
begin
comment generated by PY
lattice        12.0000000000         0.0000000000         0.0000000000
lattice         0.0000000000        12.0000000000         0.0000000000
lattice         0.0000000000         0.0000000000        20.0000000000
atom         0.0000000000        0.0000000000        0.0000000000 O         0.0000000000         0.0000000000        -0.0000000000       -0.0000000000      289.2606671405
atom         0.0000000000        0.0000000000        1.3400000000 O         0.0000000000         0.0000000000         0.0000000000        0.0000000000     -289.2606671405
energy      -280.7778996191
charge 0
end
begin
comment generated by PY
lattice        12.0000000000         0.0000000000         0.0000000000
lattice         0.0000000000        12.0000000000         0.0000000000
lattice         0.0000000000         0.0000000000        20.0000000000
atom         0.0000000000        0.0000000000        0.0000000000 O         0.0000000000         0.0000000000         0.0000000000        0.0000000000      298.5576879633
atom         0.0000000000        0.0000000000        1.4000000000 O         0.0000000000         0.0000000000        -0.0000000000       -0.0000000000     -298.5576879633
energy      -263.0773482458
charge 0
end
begin
comment generated by PY
lattice        12.0000000000         0.0000000000         0.0000000000
lattice         0.0000000000        12.0000000000         0.0000000000
lattice         0.0000000000         0.0000000000        20.0000000000
atom         0.0000000000        0.0000000000        0.0000000000 O         0.0000000000         0.0000000000         0.0000000000        0.0000000000      297.2773589405
atom         0.0000000000        0.0000000000        1.4600000000 O         0.0000000000         0.0000000000        -0.0000000000       -0.0000000000     -297.2773589405
energy      -245.1613945931
charge 0
end
begin
comment generated by PY
lattice        12.0000000000         0.0000000000         0.0000000000
lattice         0.0000000000        12.0000000000         0.0000000000
lattice         0.0000000000         0.0000000000        20.0000000000
atom         0.0000000000        0.0000000000        0.0000000000 O         0.0000000000         0.0000000000         0.0000000000        0.0000000000      289.3637388275
atom         0.0000000000        0.0000000000        1.5200000000 O         0.0000000000         0.0000000000        -0.0000000000       -0.0000000000     -289.3637388275
energy      -227.5361265172
charge 0
end
begin
comment generated by PY
lattice        12.0000000000         0.0000000000         0.0000000000
lattice         0.0000000000        12.0000000000         0.0000000000
lattice         0.0000000000         0.0000000000        20.0000000000
atom         0.0000000000        0.0000000000        0.0000000000 O         0.0000000000         0.0000000000        -0.0000000000        0.0000000000      277.1941122345
atom         0.0000000000        0.0000000000        1.5800000000 O         0.0000000000         0.0000000000         0.0000000000       -0.0000000000     -277.1941122345
energy      -210.5226968160
charge 0
end
begin
comment generated by PY
lattice        12.0000000000         0.0000000000         0.0000000000
lattice         0.0000000000        12.0000000000         0.0000000000
lattice         0.0000000000         0.0000000000        20.0000000000
atom         0.0000000000        0.0000000000        0.0000000000 O         0.0000000000         0.0000000000        -0.0000000000        0.0000000000      262.3605207276
atom         0.0000000000        0.0000000000        1.6400000000 O         0.0000000000         0.0000000000         0.0000000000       -0.0000000000     -262.3605207276
energy      -194.3260507215
charge 0
end
begin
comment generated by PY
lattice        12.0000000000         0.0000000000         0.0000000000
lattice         0.0000000000        12.0000000000         0.0000000000
lattice         0.0000000000         0.0000000000        20.0000000000
atom         0.0000000000        0.0000000000        0.0000000000 O         0.0000000000         0.0000000000         0.0000000000        0.0000000000      246.0369420042
atom         0.0000000000        0.0000000000        1.7000000000 O         0.0000000000         0.0000000000        -0.0000000000       -0.0000000000     -246.0369420042
energy      -179.0691081061
charge 0
end
begin
comment generated by PY
lattice        12.0000000000         0.0000000000         0.0000000000
lattice         0.0000000000        12.0000000000         0.0000000000
lattice         0.0000000000         0.0000000000        20.0000000000
atom         0.0000000000        0.0000000000        0.0000000000 O         0.0000000000         0.0000000000         0.0000000000        0.0000000000      229.0931263126
atom         0.0000000000        0.0000000000        1.7600000000 O         0.0000000000         0.0000000000        -0.0000000000       -0.0000000000     -229.0931263126
energy      -164.8138490997
charge 0
end
begin
comment generated by PY
lattice        12.0000000000         0.0000000000         0.0000000000
lattice         0.0000000000        12.0000000000         0.0000000000
lattice         0.0000000000         0.0000000000        20.0000000000
atom         0.0000000000        0.0000000000        0.0000000000 O         0.0000000000         0.0000000000        -0.0000000000       -0.0000000000      212.1565787346
atom         0.0000000000        0.0000000000        1.8200000000 O         0.0000000000         0.0000000000         0.0000000000        0.0000000000     -212.1565787346
energy      -151.5775367025
charge 0
end
begin
comment generated by PY
lattice        12.0000000000         0.0000000000         0.0000000000
lattice         0.0000000000        12.0000000000         0.0000000000
lattice         0.0000000000         0.0000000000        20.0000000000
atom         0.0000000000        0.0000000000        0.0000000000 O         0.0000000000         0.0000000000        -0.0000000000        0.0000000000      195.6316413044
atom         0.0000000000        0.0000000000        1.8800000000 O         0.0000000000         0.0000000000         0.0000000000       -0.0000000000     -195.6316413044
energy      -139.3466322937
charge 0
end
begin
comment generated by PY
lattice        12.0000000000         0.0000000000         0.0000000000
lattice         0.0000000000        12.0000000000         0.0000000000
lattice         0.0000000000         0.0000000000        20.0000000000
atom         0.0000000000        0.0000000000        0.0000000000 O         0.0000000000         0.0000000000         0.0000000000       -0.0000000000      179.7497926282
atom         0.0000000000        0.0000000000        1.9400000000 O         0.0000000000         0.0000000000        -0.0000000000        0.0000000000     -179.7497926282
energy      -128.0879589411
charge 0
end
begin
comment generated by PY
lattice        12.0000000000         0.0000000000         0.0000000000
lattice         0.0000000000        12.0000000000         0.0000000000
lattice         0.0000000000         0.0000000000        20.0000000000
atom         0.0000000000        0.0000000000        0.0000000000 O         0.0000000000         0.0000000000         0.0000000000       -0.0000000000      163.9963823149
atom         0.0000000000        0.0000000000        2.0000000000 O         0.0000000000         0.0000000000        -0.0000000000        0.0000000000     -163.9963823149
energy      -117.7195975834
charge 0
end
begin
comment generated by PY
lattice        12.0000000000         0.0000000000         0.0000000000
lattice         0.0000000000        12.0000000000         0.0000000000
lattice         0.0000000000         0.0000000000        20.0000000000
atom         0.0000000000        0.0000000000        0.0000000000 O         0.0000000000         0.0000000000        -0.0000000000        0.0000000000       40.2522537118
atom         0.0000000000        0.0000000000        2.0600000000 O         0.0000000000         0.0000000000         0.0000000000       -0.0000000000      -40.2522537118
energy      -111.6671972133
charge 0
end
begin
comment generated by PY
lattice        12.0000000000         0.0000000000         0.0000000000
lattice         0.0000000000        12.0000000000         0.0000000000
lattice         0.0000000000         0.0000000000        20.0000000000
atom         0.0000000000        0.0000000000        0.0000000000 O         0.0000000000         0.0000000000        -0.0000230605        0.0000230605       41.1392453414
atom         0.0000000000        0.0000000000        2.1200000000 O         0.0000000000         0.0000000000         0.0000230605       -0.0000230605      -41.1392453414
energy      -109.2192031307
charge 0
end
begin
comment generated by PY
lattice        12.0000000000         0.0000000000         0.0000000000
lattice         0.0000000000        12.0000000000         0.0000000000
lattice         0.0000000000         0.0000000000        20.0000000000
atom         0.0000000000        0.0000000000        0.0000000000 O         0.0000000000         0.0000000000        -0.0000000000       -0.0000000000       40.9092975001
atom         0.0000000000        0.0000000000        2.1800000000 O         0.0000000000         0.0000000000         0.0000000000        0.0000000000      -40.9092975001
energy      -106.7535337149
charge 0
end
begin
comment generated by PY
lattice        12.0000000000         0.0000000000         0.0000000000
lattice         0.0000000000        12.0000000000         0.0000000000
lattice         0.0000000000         0.0000000000        20.0000000000
atom         0.0000000000        0.0000000000        0.0000000000 O         0.0000000000         0.0000000000        -0.0000000000       -0.0000000000       39.8899659464
atom         0.0000000000        0.0000000000        2.2400000000 O         0.0000000000         0.0000000000         0.0000000000        0.0000000000      -39.8899659464
energy      -104.3265690114
charge 0
end
begin
comment generated by PY
lattice        12.0000000000         0.0000000000         0.0000000000
lattice         0.0000000000        12.0000000000         0.0000000000
lattice         0.0000000000         0.0000000000        20.0000000000
atom         0.0000000000        0.0000000000        0.0000000000 O         0.0000000000         0.0000000000         0.0000000000       -0.0000000000       38.3262428891
atom         0.0000000000        0.0000000000        2.3000000000 O         0.0000000000         0.0000000000        -0.0000000000        0.0000000000      -38.3262428891
energy      -101.9780203301
charge 0
end
begin
comment generated by PY
lattice        12.0000000000         0.0000000000         0.0000000000
lattice         0.0000000000        12.0000000000         0.0000000000
lattice         0.0000000000         0.0000000000        20.0000000000
atom         0.0000000000        0.0000000000        0.0000000000 O         0.0000000000         0.0000000000        -0.0000000000        0.0000000000       36.4279379842
atom         0.0000000000        0.0000000000        2.3600000000 O         0.0000000000         0.0000000000         0.0000000000       -0.0000000000      -36.4279379842
energy       -99.7336622986
charge 0
end
begin
comment generated by PY
lattice        12.0000000000         0.0000000000         0.0000000000
lattice         0.0000000000        12.0000000000         0.0000000000
lattice         0.0000000000         0.0000000000        20.0000000000
atom         0.0000000000        0.0000000000        0.0000000000 O         0.0000000000         0.0000000000        -0.0000000000       -0.0000000000       34.3222072383
atom         0.0000000000        0.0000000000        2.4200000000 O         0.0000000000         0.0000000000         0.0000000000        0.0000000000      -34.3222072383
energy       -97.6082906773
charge 0
end
begin
comment generated by PY
lattice        12.0000000000         0.0000000000         0.0000000000
lattice         0.0000000000        12.0000000000         0.0000000000
lattice         0.0000000000         0.0000000000        20.0000000000
atom         0.0000000000        0.0000000000        0.0000000000 O         0.0000000000         0.0000000000        -0.0000230605        0.0000230605       32.1211903819
atom         0.0000000000        0.0000000000        2.4800000000 O         0.0000000000         0.0000000000         0.0000230605       -0.0000230605      -32.1211903819
energy       -95.6085232593
charge 0
end
begin
comment generated by PY
lattice        12.0000000000         0.0000000000         0.0000000000
lattice         0.0000000000        12.0000000000         0.0000000000
lattice         0.0000000000         0.0000000000        20.0000000000
atom         0.0000000000        0.0000000000        0.0000000000 O         0.0000000000         0.0000000000        -0.0000461211       -0.0002075449       29.8775284622
atom         0.0000000000        0.0000000000        2.5400000000 O         0.0000000000         0.0000000000         0.0000461211        0.0002075449      -29.8775284622
energy       -93.7332796522
charge 0
end
begin
comment generated by PY
lattice        12.0000000000         0.0000000000         0.0000000000
lattice         0.0000000000        12.0000000000         0.0000000000
lattice         0.0000000000         0.0000000000        20.0000000000
atom         0.0000000000        0.0000000000        0.0000000000 O         0.0000000000         0.0000000000         0.0004381504       -0.0056267737       26.8105973350
atom         0.0000000000        0.0000000000        2.6000000000 O         0.0000000000         0.0000000000        -0.0004381504        0.0056267737      -26.8105973350
energy       -91.9911077552
charge 0
end
begin
comment generated by PY
lattice        12.0000000000         0.0000000000         0.0000000000
lattice         0.0000000000        12.0000000000         0.0000000000
lattice         0.0000000000         0.0000000000        20.0000000000
atom         0.0000000000        0.0000000000        0.0000000000 O         0.0000000000         0.0000000000         0.0000230605       -0.0000461211       25.4555085817
atom         0.0000000000        0.0000000000        2.6600000000 O         0.0000000000         0.0000000000        -0.0000230605        0.0000461211      -25.4555085817
energy       -90.3407291171
charge 0
end
begin
comment generated by PY
lattice        12.0000000000         0.0000000000         0.0000000000
lattice         0.0000000000        12.0000000000         0.0000000000
lattice         0.0000000000         0.0000000000        20.0000000000
atom         0.0000000000        0.0000000000        0.0000000000 O         0.0000000000         0.0000000000         0.0000230605       -0.0000230605       23.3441639332
atom         0.0000000000        0.0000000000        2.7200000000 O         0.0000000000         0.0000000000        -0.0000230605        0.0000230605      -23.3441639332
energy       -88.8165569407
charge 0
end
begin
comment generated by PY
lattice        12.0000000000         0.0000000000         0.0000000000
lattice         0.0000000000        12.0000000000         0.0000000000
lattice         0.0000000000         0.0000000000        20.0000000000
atom         0.0000000000        0.0000000000        0.0000000000 O         0.0000000000         0.0000000000         0.0000000000       -0.0000230605       21.3109071191
atom         0.0000000000        0.0000000000        2.7800000000 O         0.0000000000         0.0000000000        -0.0000000000        0.0000230605      -21.3109071191
energy       -87.4029894855
charge 0
end
begin
comment generated by PY
lattice        12.0000000000         0.0000000000         0.0000000000
lattice         0.0000000000        12.0000000000         0.0000000000
lattice         0.0000000000         0.0000000000        20.0000000000
atom         0.0000000000        0.0000000000        0.0000000000 O         0.0000000000         0.0000000000         0.0000000000       -0.0000000000       19.3088535188
atom         0.0000000000        0.0000000000        2.8400000000 O         0.0000000000         0.0000000000        -0.0000000000        0.0000000000      -19.3088535188
energy       -86.0953079638
charge 0
end
begin
comment generated by PY
lattice        12.0000000000         0.0000000000         0.0000000000
lattice         0.0000000000        12.0000000000         0.0000000000
lattice         0.0000000000         0.0000000000        20.0000000000
atom         0.0000000000        0.0000000000        0.0000000000 O         0.0000000000         0.0000000000         0.0000000000        0.0000000000       10.2726001850
atom         0.0000000000        0.0000000000        2.9000000000 O         0.0000000000         0.0000000000        -0.0000000000       -0.0000000000      -10.2726001850
energy       -84.4821646583
charge 0
end
begin
comment generated by PY
lattice        12.0000000000         0.0000000000         0.0000000000
lattice         0.0000000000        12.0000000000         0.0000000000
lattice         0.0000000000         0.0000000000        20.0000000000
atom         0.0000000000        0.0000000000        0.0000000000 O         0.0000000000         0.0000000000         0.0001614238        0.0000922422       -2.3186834582
atom         0.0000000000        0.0000000000        2.9600000000 O         0.0000000000         0.0000000000        -0.0001614238       -0.0000922422        2.3186834582
energy       -86.9335798491
charge 0
end
begin
comment generated by PY
lattice        12.0000000000         0.0000000000         0.0000000000
lattice         0.0000000000        12.0000000000         0.0000000000
lattice         0.0000000000         0.0000000000        20.0000000000
atom         0.0000000000        0.0000000000        0.0000000000 O         0.0000000000         0.0000000000        -0.0005765137        0.0000230605       11.0322957668
atom         0.0000000000        0.0000000000        3.0200000000 O         0.0000000000         0.0000000000         0.0005765137       -0.0000230605      -11.0322957668
energy       -82.8023513684
charge 0
end
begin
comment generated by PY
lattice        12.0000000000         0.0000000000         0.0000000000
lattice         0.0000000000        12.0000000000         0.0000000000
lattice         0.0000000000         0.0000000000        20.0000000000
atom         0.0000000000        0.0000000000        0.0000000000 O         0.0000000000         0.0000000000         0.0001153027       -0.0005995742        5.9496288149
atom         0.0000000000        0.0000000000        3.0800000000 O         0.0000000000         0.0000000000        -0.0001153027        0.0005995742       -5.9496288149
energy       -85.5240658728
charge 0
end
begin
comment generated by PY
lattice        12.0000000000         0.0000000000         0.0000000000
lattice         0.0000000000        12.0000000000         0.0000000000
lattice         0.0000000000         0.0000000000        20.0000000000
atom         0.0000000000        0.0000000000        0.0000000000 O         0.0000000000         0.0000000000        -0.0000000000        0.0000000000        5.6656710958
atom         0.0000000000        0.0000000000        3.1400000000 O         0.0000000000         0.0000000000         0.0000000000       -0.0000000000       -5.6656710958
energy       -78.0775696118
charge 0
end
begin
comment generated by PY
lattice        12.0000000000         0.0000000000         0.0000000000
lattice         0.0000000000        12.0000000000         0.0000000000
lattice         0.0000000000         0.0000000000        20.0000000000
atom         0.0000000000        0.0000000000        0.0000000000 O         0.0000000000         0.0000000000         0.0000230605        0.0000000000        5.4310029126
atom         0.0000000000        0.0000000000        3.2000000000 O         0.0000000000         0.0000000000        -0.0000230605       -0.0000000000       -5.4310029126
energy       -77.6964310529
charge 0
end
begin
comment generated by PY
lattice        12.0000000000         0.0000000000         0.0000000000
lattice         0.0000000000        12.0000000000         0.0000000000
lattice         0.0000000000         0.0000000000        20.0000000000
atom         0.0000000000        0.0000000000        0.0000000000 O         0.0000000000         0.0000000000        -0.0000000000        0.0000000000        5.1771824848
atom         0.0000000000        0.0000000000        3.2600000000 O         0.0000000000         0.0000000000         0.0000000000       -0.0000000000       -5.1771824848
energy       -77.3472001832
charge 0
end
begin
comment generated by PY
lattice        12.0000000000         0.0000000000         0.0000000000
lattice         0.0000000000        12.0000000000         0.0000000000
lattice         0.0000000000         0.0000000000        20.0000000000
atom         0.0000000000        0.0000000000        0.0000000000 O         0.0000000000         0.0000000000         0.0000000000       -0.0000000000        4.9120973268