begin
comment generated by PY
lattice         8.7600000000         0.0000000000         0.0000000000
lattice         0.0000000000        12.5100000000         0.0000000000
lattice        -3.7840000000         0.0000000000        13.0000000000
atom         2.6409000000        9.2510800000        2.8246800000 C         0.0000000000         0.0000000000        54.3430318405       14.6272822011       78.7570333391
atom         4.7356900000       10.5643000000        3.2995400000 C         0.0000000000         0.0000000000       -96.2746166974      -85.7853066726       77.7933591868
atom         3.1381400000       11.4212000000        4.9310200000 C         0.0000000000         0.0000000000       105.9714303913       41.5912772332     -111.6277712184
atom         4.0621700000       11.8461000000        2.7047400000 C         0.0000000000         0.0000000000      -112.9976737398       -4.8406430708       15.9944486455
atom         2.0030400000       10.4716000000        2.1318200000 C         0.0000000000         0.0000000000        44.8437657211      126.6115184646       65.3594530549
atom         1.8294400000       10.7763000000        4.5727500000 C         0.0000000000         0.0000000000        -7.0730376800     -121.6094116575     -120.2141639207
atom         5.5920100000        9.4144200000        9.3740000000 C         0.0000000000         0.0000000000       113.8587954564      -44.6258152974       82.5323646740
atom        -1.2230700000        7.8426000000        9.3771600000 C         0.0000000000         0.0000000000       -57.9185806092       92.0959647255       51.9336095307
atom        -2.3839600000        7.0668200000       11.3975000000 C         0.0000000000         0.0000000000        56.8038749212        9.4018631479     -142.3136154780
atom        -2.2278700000        6.6547800000        8.9715700000 C         0.0000000000         0.0000000000      -119.1722713159        5.1510660859       63.2654294193
atom         4.6063100000        8.2621100000        9.0499100000 C         0.0000000000         0.0000000000        46.2453728414     -135.8882847870       44.5920834359
atom         5.2169600000        8.0543900000       11.4213000000 C         0.0000000000         0.0000000000       -55.2161502532       73.6506972324     -132.3404822425
atom         2.1326300000        3.3233500000        9.0012700000 C         0.0000000000         0.0000000000       -61.6450432775      -53.5254484212      -27.9736462266
atom         0.0614700000        2.2036100000        9.8482900000 C         0.0000000000         0.0000000000        48.4539162580       27.8432095756      -90.5592955121
atom         0.9273700000        0.4995300000        8.3344100000 C         0.0000000000         0.0000000000       -56.3825266389       48.0685494394      134.1858126701
atom         0.9433700000        1.2103800000       10.6768000000 C         0.0000000000         0.0000000000        95.7826339086      -36.2869167805      -42.5833809923
atom         3.0062000000        2.4053000000        9.8236500000 C         0.0000000000         0.0000000000       -32.3199142850     -166.1274969059       14.1603412503
atom         2.2480900000        1.1374800000        7.8959200000 C         0.0000000000         0.0000000000        94.1689553542      127.7394593007       61.8068024604
atom        -0.3433500000        3.1413500000        3.6048800000 C         0.0000000000         0.0000000000      -125.7720094162       36.3913333910      -86.1384658765
atom         6.2912600000        4.4725400000        3.7442400000 C         0.0000000000         0.0000000000        52.8434107165      -70.9925572388      -79.1100454642
atom         7.2946900000        5.5708900000        1.7925000000 C         0.0000000000         0.0000000000       -63.9554045979      -22.9691384232      142.6098114364
atom         7.1488400000        5.7262200000        4.2205000000 C         0.0000000000         0.0000000000       119.5619841195       15.8629148515      -45.4578483078
atom         0.5038200000        4.3443700000        4.0538300000 C         0.0000000000         0.0000000000       -70.2731023121      142.3109334588      -52.2539069042
atom        -0.1796000000        4.7413200000        1.7203600000 C         0.0000000000         0.0000000000        79.4951716043      -95.8786198661      109.6411388272
atom         2.3058700000        8.3052200000        2.3568700000 H         0.0000000000         0.0000000000        45.7546342780      112.8016282177       63.1581633936
atom         5.8408300000       10.5792000000        3.1908900000 H         0.0000000000         0.0000000000      -133.7078107024       -8.3740014170       19.3894013994
atom         3.0953100000       11.8817000000        5.9561100000 H         0.0000000000         0.0000000000        17.3686189227      -54.9700604957     -124.5177164288
atom         4.7814300000        0.0431000000        2.2419500000 H         0.0000000000         0.0000000000       -95.2123171118      -84.7653759079       53.5116680725
atom         1.3346400000       10.2198000000        1.2907400000 H         0.0000000000         0.0000000000        80.0510320670       40.3208126983      104.1057212202
atom         1.0851500000       10.8445000000        5.3839600000 H         0.0000000000         0.0000000000        85.4558712323      -13.2568080868     -109.2794030842
atom         5.2777400000       10.3900000000        8.9608900000 H         0.0000000000         0.0000000000        44.2471026136     -114.3028669179       58.9912127510
atom        -0.2039000000        7.7013800000        8.9652300000 H         0.0000000000         0.0000000000      -127.4760922734       25.3731160671       50.3885832839
atom        -2.1777000000        6.5698200000       12.3759000000 H         0.0000000000         0.0000000000       -23.5861626170       57.4669102410     -123.4242296803
atom        -1.7939400000        5.8555900000        8.3455500000 H         0.0000000000         0.0000000000       -57.2443407995      100.0573181525       73.3518021146
atom         3.7056700000        8.5801800000        8.4881000000 H         0.0000000000         0.0000000000       107.5768723013      -47.4731871952       71.5887506967
atom         4.7536100000        8.1419600000       12.4111000000 H         0.0000000000         0.0000000000        46.5848824704       -0.8762959113     -127.1982176647
atom         2.5700900000        4.3322200000        8.8604800000 H         0.0000000000         0.0000000000       -56.8624070911     -125.4902325644       15.6786768304
atom        -0.9351800000        2.4014200000       10.3142000000 H         0.0000000000         0.0000000000       129.7694074751      -19.2241868875      -59.9233479083
atom         0.6042200000       12.1817000000        7.6781900000 H         0.0000000000         0.0000000000        33.5982724507      101.3035951042       84.4004839447
atom         0.4595400000        0.9271800000       11.6238000000 H         0.0000000000         0.0000000000        64.7170571767       30.5816449654     -108.1031998000
atom         3.9407400000        2.8707800000       10.1472000000 H         0.0000000000         0.0000000000      -108.7618573792      -63.5512667991      -36.3818451469
atom         2.6512400000        0.5986400000        7.0116900000 H         0.0000000000         0.0000000000       -38.0990254943       74.2285993033      104.6191972486
atom         0.0985900000        2.1864200000        3.9220400000 H         0.0000000000         0.0000000000       -55.2459468551      111.0893213644      -48.2897397647
atom         5.2647800000        4.4606200000        4.1774700000 H         0.0000000000         0.0000000000       130.2105055948       -6.1967350526      -54.0842207897
atom         7.0314200000        6.1014500000        0.8415900000 H         0.0000000000         0.0000000000        30.9165057064      -66.4282969655      120.9265457679
atom         6.6176600000        6.3442400000        4.9524800000 H         0.0000000000         0.0000000000        70.8343837031      -73.2950447225      -87.8661404106
atom         1.4137400000        4.0719600000        4.6057100000 H         0.0000000000         0.0000000000      -106.0072213833       39.2233880161      -63.2880994283
atom         0.2798200000        4.8016500000        0.7310200000 H         0.0000000000         0.0000000000       -45.3254333780      -16.7535622008      124.4347566805
atom         4.7494100000        8.1501600000        3.1377300000 N         0.0000000000         0.0000000000        35.1727794801     -102.3149091085       37.0460754630
atom         4.1317200000        9.3290000000        2.7200000000 N         0.0000000000         0.0000000000       -65.6960257901       69.5904177311      118.8221344423
atom         5.3712400000       10.8825000000        5.6567800000 N         0.0000000000         0.0000000000        83.0699890915       75.1545081293       70.3360216326
atom         4.3005400000       10.4840000000        4.7380700000 N         0.0000000000         0.0000000000       -29.4886458231      152.6197477375      -70.8103292488
atom         2.5763100000        0.9631800000        3.8111400000 N         0.0000000000         0.0000000000       -24.4218252823       87.6714019360      -13.2088867931
atom         3.4484800000       12.4354000000        3.9207300000 N         0.0000000000         0.0000000000       -56.4524603304     -120.0716273455      -25.2243950535
atom         2.7647600000       12.2707000000        0.6453400000 N         0.0000000000         0.0000000000       -26.0098557361       68.9252249074     -105.7199457609
atom         3.0580900000       11.4274000000        1.7132700000 N         0.0000000000         0.0000000000       -28.9155402177       -4.7837170002       99.8057408496
atom        -0.1644800000       10.8772000000        3.1968100000 N         0.0000000000         0.0000000000      -135.1505465560      -15.9251861488       -1.2344147634
atom         1.2573500000       11.2040000000        3.2335800000 N         0.0000000000         0.0000000000        39.5313796114     -183.5946330258       42.2642595742
atom         2.4521900000        8.5190300000        5.2540800000 N         0.0000000000         0.0000000000        18.1942960464      -55.5511072515       63.2612736495
atom         2.1196600000        9.3783800000        4.2196500000 N         0.0000000000         0.0000000000        59.5660423065       95.6625658814      -27.8527789477
atom        -0.9865400000       10.0839000000        8.3877700000 N         0.0000000000         0.0000000000        61.6969037413       76.0567102171      -35.1794362605
atom        -1.8003500000        9.0949700000        8.9131400000 N         0.0000000000         0.0000000000       -42.6569142260      -53.2757627370       74.0566113710
atom        -0.7247700000        8.7892200000       11.6645000000 N         0.0000000000         0.0000000000        53.8295085887       65.2290060805       49.6841184350
atom        -1.2218700000        7.7984600000       10.8693000000 N         0.0000000000         0.0000000000      -119.9084060644      -21.4911849169      -35.9967512646
atom         5.3114800000        5.0900500000       10.4517000000 N         0.0000000000         0.0000000000       -35.0230093066      -72.7717134703       23.0073059830
atom        -2.6192300000        6.1302000000       10.2885000000 N         0.0000000000         0.0000000000        22.7033471684      106.5398948179        3.5104416224
atom         4.5635500000        6.3448200000        7.5431300000 N         0.0000000000         0.0000000000       -47.4732513812      -62.6963418412      -66.3748658766
atom         5.3465200000        7.2170200000        8.3047500000 N         0.0000000000         0.0000000000        -4.4282119005        6.0241287339      124.4879349661
atom         2.8598400000        7.7854400000       10.7560000000 N         0.0000000000         0.0000000000      -108.1120321610       -1.3411299282       24.3992482329
atom         4.2415400000        7.6430000000       10.3628000000 N         0.0000000000         0.0000000000        45.7067742443      156.0682271806       17.1403597547
atom         4.9376900000       10.5014000000       11.4612000000 N         0.0000000000         0.0000000000       -41.2864020823       99.0653736341       56.0244962708
atom        -3.1043900000        9.3961200000       10.8789000000 N         0.0000000000         0.0000000000      -134.3104098920      -73.1247459383      -65.0436774422
atom         0.9140300000        4.1654000000       10.8983000000 N         0.0000000000         0.0000000000        -6.7093235283       74.0019867177       84.7743121840
atom         0.8088700000        3.4622700000        9.6802400000 N         0.0000000000         0.0000000000        80.4048931393     -136.1382448685       36.5092283716
atom        -0.5831200000        2.2808200000        7.4932000000 N         0.0000000000         0.0000000000       -52.1668165389       47.9837551056      -75.7727638944
atom        -0.1247400000        1.5294700000        8.5400800000 N         0.0000000000         0.0000000000       141.9725790427       26.2476200274       56.5938094266
atom         1.9234700000       11.5372000000       10.0152000000 N         0.0000000000         0.0000000000        51.3033589201      -71.0000945620       34.0019809285
atom         1.0390900000        0.0388900000        9.7485700000 N         0.0000000000         0.0000000000        50.3223740762      124.4445136863      -61.5784541330
atom         3.0267800000        1.2583400000       12.0170000000 N         0.0000000000         0.0000000000        63.2654581392       -7.5786801185      117.6119392175
atom         2.2540000000        1.8049100000       10.9650000000 N         0.0000000000         0.0000000000       -30.6706700628      -32.0522999197     -105.4394036972
atom         4.6023300000        0.8018500000        8.7453700000 N         0.0000000000         0.0000000000        91.6454532629      -25.3123271327      -18.7841357325
atom         3.2597600000        1.2254700000        8.9624200000 N         0.0000000000         0.0000000000       -38.6902895320       99.0869356376      -43.5379165796
atom         3.1488300000        3.0908500000        6.8155100000 N         0.0000000000         0.0000000000       142.5676196182       33.1275329250      -53.6364040234
atom         2.0455700000        2.6207600000        7.6520500000 N         0.0000000000         0.0000000000        72.9841799323      -56.3538119038      119.9161734279
atom         6.2717500000        2.0538800000        4.0877300000 N         0.0000000000         0.0000000000       -68.1087103583      -78.2939724048        3.5364992955
atom         7.0138300000        3.2376300000        4.0716600000 N         0.0000000000         0.0000000000        42.4609372735       68.8448566960      -95.5244782458
atom         5.8231500000        3.6979600000        1.4236000000 N         0.0000000000         0.0000000000       -49.4407403682      -61.8232917998      -74.1397458732
atom         6.2227200000        4.6790500000        2.2731100000 N         0.0000000000         0.0000000000       127.0296776776       19.5736372550       41.7748003253
atom        -0.4071000000        7.4171200000        2.9023100000 N         0.0000000000         0.0000000000        36.5670693597       65.1825394103       17.7242986581
atom         7.3827200000        6.4706500000        2.9501700000 N         0.0000000000         0.0000000000        49.0847816728     -138.0742692004      -12.9208525746
atom         0.0348500000        5.7062300000        6.0868700000 N         0.0000000000         0.0000000000        23.2601739103       13.8952035275       98.0181517594
atom        -0.3173200000        5.3349200000        4.7785800000 N         0.0000000000         0.0000000000       -45.6498090928      -58.7073131447      -43.9444363883
atom         2.1818200000        5.0749200000        2.3976300000 N         0.0000000000         0.0000000000       106.3765745380       11.0338327288      -31.4342258458
atom         0.8010100000        5.0984400000        2.7873500000 N         0.0000000000         0.0000000000       -38.1219589123     -148.9855880714      -13.5062895573
atom         0.4574600000        2.3942500000        1.4270800000 N         0.0000000000         0.0000000000        58.8012495263      -93.0236514087      -62.9107697630
atom        -0.4371400000        3.3054700000        2.1102200000 N         0.0000000000         0.0000000000       129.6436842346       85.5698445372       68.1551034190
atom         5.5020400000        8.2253800000        4.1250700000 O         0.0000000000         0.0000000000      -174.2088774059      -13.1677107852     -245.7639786535
atom         4.4638900000        7.1484600000        2.4705000000 O         0.0000000000         0.0000000000        69.9892126958      245.8827873718      169.6681697750
atom         5.7712300000       12.0206000000        5.4265000000 O         0.0000000000         0.0000000000       -86.1867158518     -287.5551836915       66.2225218204
atom         5.7192900000       10.0806000000        6.5446600000 O         0.0000000000         0.0000000000       -91.8280406739      203.8486505799     -232.9925319560
atom         1.6579000000        1.0166700000        4.6561300000 O         0.0000000000         0.0000000000       215.0274265218      -15.8494149882     -189.4592573097
atom         2.8505700000        1.7831900000        2.9364400000 O         0.0000000000         0.0000000000       -78.5607941459     -201.0178352526      209.3378267464
atom        -1.9773900000       11.9372000000       12.9371000000 O         0.0000000000         0.0000000000       234.6262196552       75.3951795284      177.1003562066
atom         3.5101400000        0.7355700000        0.4699100000 O         0.0000000000         0.0000000000      -179.3268154299     -244.7025031763       49.2409594391
atom         8.0733500000       10.8349000000        2.0775700000 O         0.0000000000         0.0000000000       138.9382054310        9.6248271505      281.6834411675
atom        -0.7457800000       10.7487000000        4.2910200000 O         0.0000000000         0.0000000000       145.4105210742       35.3458009387     -270.0682449479
atom         2.4847700000        9.0357200000        6.3891300000 O         0.0000000000         0.0000000000       -11.3426125035     -122.3614618893     -278.4645577960
atom         2.6437900000        7.3290400000        4.9433400000 O         0.0000000000         0.0000000000       -43.2380208616      291.9218933561       71.2667346122
atom        -1.3368900000       11.2642000000        8.5879500000 O         0.0000000000         0.0000000000        81.8974255375     -296.2039233206      -52.5455399049
atom         0.0036500000        9.6740200000        7.7657300000 O         0.0000000000         0.0000000000      -239.3318014205      103.0064396811      154.1212416756
atom         0.1035800000        9.5434500000       11.1407000000 O         0.0000000000         0.0000000000      -211.0333891361     -184.5600522521      124.5189738827
atom        -1.1196300000        8.7922900000       12.8599000000 O         0.0000000000         0.0000000000        89.4261708596       -4.5651271156     -292.7229308809
atom         4.6863100000        5.0579900000       11.5329000000 O         0.0000000000         0.0000000000       149.5022969167        6.8715354070     -261.3701728165
atom         5.3116500000        4.2568900000        9.5245700000 O         0.0000000000         0.0000000000       -10.5642029075      203.9097263898      216.0219978216
atom         3.3364200000        6.4117300000        7.6945000000 O         0.0000000000         0.0000000000       305.7771127128      -16.4732001102      -36.9487059895
atom         5.2124000000        5.6396900000        6.7605100000 O         0.0000000000         0.0000000000      -163.1451668746      166.1658226572      192.7486788367
atom         2.0610100000        7.8323400000        9.8130600000 O         0.0000000000         0.0000000000       198.5100385068      -11.0458927163      241.9153035863
atom         2.6297600000        7.7609800000       11.9799000000 O         0.0000000000         0.0000000000        55.9349977969        3.1440958619     -309.4212703427
atom         4.3757700000       10.2958000000       12.5375000000 O         0.0000000000         0.0000000000       144.1694690833       51.9542382833     -271.1687226231
atom         5.0559800000       11.5618000000       10.8408000000 O         0.0000000000         0.0000000000       -37.5971013725     -265.6152510881      152.4936493266
atom         1.7222200000        5.1025900000       10.9004000000 O         0.0000000000         0.0000000000      -193.1944978021     -230.8966645913       -0.3478109131
atom         0.1210900000        3.8472500000       11.7970000000 O         0.0000000000         0.0000000000       196.2656650597       76.0787334421     -226.2898130158
atom        -1.2193300000        3.3090300000        7.8124000000 O         0.0000000000         0.0000000000       161.6048570607     -255.1510299088      -78.8284402206
atom        -0.3790700000        1.8197300000        6.3435600000 O         0.0000000000         0.0000000000       -48.9898288290      110.9779085367      285.9261832587
atom         2.4283500000       10.9691000000        9.0267700000 O         0.0000000000         0.0000000000      -119.8323110780      136.6172569944      231.0833344747
atom         2.0831400000       11.2743000000       11.2168000000 O         0.0000000000         0.0000000000       -33.0242326197       67.7130106481     -304.2824118136
atom         4.2242700000        1.5652300000       12.0038000000 O         0.0000000000         0.0000000000      -297.7454285227      -74.6087294059       -2.7047825522
atom         2.4234500000        0.6521900000       12.9030000000 O         0.0000000000         0.0000000000       145.8898059076      154.2783409840     -229.2697654491
atom         5.4889800000        1.3024700000        9.4503700000 O         0.0000000000         0.0000000000      -234.2315119089     -127.3369637478     -184.1488204767
atom         4.7131700000       12.4432000000        7.8635400000 O         0.0000000000         0.0000000000       -24.5120482722      205.5096307039      210.4808847001
atom         4.2349400000        2.9235100000        7.3692300000 O         0.0000000000         0.0000000000      -254.5871972529       46.6379849472     -136.7490816926
atom         2.9680900000        3.5736100000        5.6948300000 O         0.0000000000         0.0000000000        32.7880144367     -131.6005765478      291.7407824231
atom         6.7314100000        1.0951500000        3.4612300000 O         0.0000000000         0.0000000000      -107.8838973091      235.4635493743      158.0784842098
atom         5.2355300000        2.1271300000        4.7490600000 O         0.0000000000         0.0000000000       250.6398860559      -20.4092022469     -167.7845718567
atom         4.9695000000        2.9108900000        1.8466000000 O         0.0000000000         0.0000000000       217.8263835636      190.8646667457      -93.1937119186
atom         6.3064800000        3.7452700000        0.2725600000 O         0.0000000000         0.0000000000      -111.2225461526       -7.6356554056      277.6047144218
atom         0.0841100000        7.6670400000        1.7722300000 O         0.0000000000         0.0000000000      -114.2477391415      -60.0179286486      268.9306803076
atom        -0.1852200000        7.9693500000        3.9920200000 O         0.0000000000         0.0000000000       -47.4467191107     -134.9128659663     -270.5171435331
atom         0.9638200000        5.0617700000        6.5941000000 O         0.0000000000         0.0000000000      -229.8686713002      161.4444157890     -127.9239738559
atom        -0.6211600000        6.6272900000        6.5986800000 O         0.0000000000         0.0000000000       158.8066749018     -224.3240795386     -129.0696924319
atom         2.9948000000        4.8018900000        3.2875500000 O         0.0000000000         0.0000000000      -205.8749706101       70.0358799280     -225.8936995714
atom         2.4045300000        5.4110200000        1.2228300000 O         0.0000000000         0.0000000000       -52.9945703443      -81.7713549102      291.8779371217
atom         1.1806300000        2.8345500000        0.5270500000 O         0.0000000000         0.0000000000      -184.6522137088     -107.2975089007      228.7543373299
atom         0.3233400000        1.2235600000        1.7958900000 O         0.0000000000         0.0000000000        42.4435799723      292.7698736764      -89.8225522481
energy    -32665.2035856494
charge 0
end
begin
comment generated by PY
lattice         9.4186852480         0.0000000000         0.0000000000
lattice         0.0000000000        14.6664776350         0.0000000000
lattice        -3.7792131340         0.0000000000        12.9835546370
atom         2.3634300000       10.9740000000        3.1130800000 C         0.0000000000         0.0000000000        53.2589785250      -26.6677764164       77.5350431776
atom         4.6826300000       11.9188400000        3.2654600000 C         0.0000000000         0.0000000000       -69.3155949348      -64.7249073989       98.4056634703
atom         3.3925000000       13.2211400000        4.8535900000 C         0.0000000000         0.0000000000       120.0783721366       82.3070956304     -120.1930227677
atom         4.2439500000       13.2178400000        2.6159900000 C         0.0000000000         0.0000000000      -124.7250558005       45.0852833675       25.4130666490
atom         1.8993100000       12.1722400000        2.2743700000 C         0.0000000000         0.0000000000        65.2217046941      116.1743609437       70.8072702610
atom         1.9378800000       12.8474400000        4.6378700000 C         0.0000000000         0.0000000000       -60.6034553380     -168.9740066656      -85.9210386907
atom         6.1630600000       10.8590400000        9.2493500000 C         0.0000000000         0.0000000000       103.8343535183       27.7606566463       73.7689241222
atom        -1.1483500000        9.5411200000        8.9495700000 C         0.0000000000         0.0000000000       -45.3310160650       80.7022667247       48.2939798336
atom        -1.9512700000        8.7007300000       11.0800800000 C         0.0000000000         0.0000000000        60.0893352304       28.0247423734     -140.3101159823
atom        -2.1076400000        8.2553300000        8.6678000000 C         0.0000000000         0.0000000000      -114.3198609656        2.1003846709       92.8895276523
atom         5.2777600000        9.6680900000        9.0092400000 C         0.0000000000         0.0000000000        72.3410251293     -152.7391805236       39.3007221911
atom        -3.2047900000        9.5592800000       11.2847800000 C         0.0000000000         0.0000000000       -77.0894417767       67.0420733993     -102.2582316640
atom         2.5246500000        3.2325700000        9.4589100000 C         0.0000000000         0.0000000000       -97.4245054349      -57.7001077720      -87.2325894994
atom         0.5733600000        1.7483700000        9.8916200000 C         0.0000000000         0.0000000000        46.4184555545       47.1448256632      -75.7587316390
atom         1.7898200000        0.3596300000        8.3617900000 C         0.0000000000         0.0000000000       -44.3977056094        1.5309216796      135.0135322854
atom         1.6434500000        0.8542200000       10.7309800000 C         0.0000000000         0.0000000000       132.2133187340      -40.2057876039      -63.2938858785
atom         3.6356000000        2.3100000000       10.1589800000 C         0.0000000000         0.0000000000       -67.4152650113     -113.7447588257      -57.7859244000
atom         2.9280900000        1.3152400000        7.9629700000 C         0.0000000000         0.0000000000        83.6887846867      151.1582901700       85.8623673126
atom        -0.3151500000        4.2621900000        3.6046500000 C         0.0000000000         0.0000000000      -114.5451459023       15.9897133229      -83.4846835129
atom         6.9788900000        5.5715300000        3.5420700000 C         0.0000000000         0.0000000000        52.5896133476      -82.7888752453      -72.5784857171
atom         8.0528700000        6.4223700000        1.4976300000 C         0.0000000000         0.0000000000       -44.6802623800       28.3625999300      138.7190604354
atom         7.7918600000        6.8984400000        3.8855400000 C         0.0000000000         0.0000000000        89.4272250378       23.9516278281      -51.4846814221
atom         0.4762000000        5.5814700000        3.9745600000 C         0.0000000000         0.0000000000       -72.6501875883       99.7375202559      -71.1437818323
atom        -0.0606100000        5.6524700000        1.5924600000 C         0.0000000000         0.0000000000        71.5228132418      -86.5729835561       97.5825111125
atom         1.8212000000       10.0456700000        2.7725700000 H         0.0000000000         0.0000000000        67.8132951832      112.4702979504       51.0601574296
atom         5.7272800000       11.6485400000        3.0225200000 H         0.0000000000         0.0000000000      -129.0384019944       31.7893221777       41.8413058537
atom         3.4537400000       13.9316400000        5.7267800000 H         0.0000000000         0.0000000000         3.7095089254     -100.7612952835      -98.4486272842
atom         5.0284000000       13.7572400000        2.0211000000 H         0.0000000000         0.0000000000      -106.5064534435      -69.4408753117       67.6086362572