begin
comment generated by PY
lattice         6.5347004000         0.0000000000         0.0000000000
lattice         0.0000000000        11.0296001000         0.0000000000
lattice         0.2302529000         0.0000000000        28.0001011000
atom         6.4017100000        2.5533000000        6.6421800000 N         0.0000000000         0.0000000000        -2.8034422219       45.2584134539      -58.4066527439
atom         1.1789200000        1.4224800000        4.9894000000 N         0.0000000000         0.0000000000       -42.4211581298       18.2126348384      -30.0680385267
atom         2.6690600000        2.9618100000        3.8587200000 N         0.0000000000         0.0000000000         2.8561895436      -45.3596454309       58.4626150193
atom         1.3574700000        4.0925900000        5.5117100000 N         0.0000000000         0.0000000000        42.3631799375      -18.2754234617       29.9959186593
atom         5.1942000000        2.7596300000        7.2736400000 N         0.0000000000         0.0000000000       -76.5014656681       22.9508323118       36.5256654714
atom         1.9976800000        0.5696000000        5.7150300000 N         0.0000000000         0.0000000000        53.1777224801      -63.8247392394       42.3841953188
atom         3.8766300000        2.7550700000        3.2274000000 N         0.0000000000         0.0000000000        76.5181585489      -22.9699241282      -36.5410835172
atom         0.5387400000        4.9451100000        4.7856100000 N         0.0000000000         0.0000000000       -53.1660266433       63.8222126542      -42.3908528166
atom         4.8256000000        2.5533000000       13.6422000000 N         0.0000000000         0.0000000000        -2.7978461008       45.2601889975      -58.3904978250
atom         6.1375100000        1.4224800000       11.9894000000 N         0.0000000000         0.0000000000       -42.4223297474       18.2072310310      -30.0270424071
atom         1.0929500000        2.9618100000       10.8587000000 N         0.0000000000         0.0000000000         2.8558773677      -45.3608327070       58.4837506851
atom         6.3160600000        4.0925900000       12.5117000000 N         0.0000000000         0.0000000000        42.3730608273      -18.2779313138       30.0207657961
atom         3.6180900000        2.7596300000       14.2737000000 N         0.0000000000         0.0000000000       -76.5030217701       22.9485547580       36.4876866647
atom         0.4215600000        0.5696000000       12.7151000000 N         0.0000000000         0.0000000000        53.1939369070      -63.8251333975       42.3522156606
atom         2.3005200000        2.7550700000       10.2274000000 N         0.0000000000         0.0000000000        76.5148648166      -22.9693272271      -36.5322298755
atom         5.4973300000        4.9451100000       11.7856000000 N         0.0000000000         0.0000000000       -53.1653466050       63.8220376307      -42.3671934516
atom         3.2494900000        2.5533000000       20.6422000000 N         0.0000000000         0.0000000000        -2.8094383378       45.2599137610      -58.3831973049
atom         4.5614000000        1.4224800000       18.9895000000 N         0.0000000000         0.0000000000       -42.4287461388       18.2109686127      -30.0943894710
atom         6.0515400000        2.9618100000       17.8588000000 N         0.0000000000         0.0000000000         2.8511556787      -45.3708061918       58.4261474707
atom         4.7399500000        4.0925900000       19.5118000000 N         0.0000000000         0.0000000000        42.3537827991      -18.2673916033       29.9765010635
atom         2.0419800000        2.7596300000       21.2737000000 N         0.0000000000         0.0000000000       -76.4980303794       22.9424055624       36.4864879420
atom         5.3801500000        0.5696000000       19.7151000000 N         0.0000000000         0.0000000000        53.1818679382      -63.8199897123       42.3738367810
atom         0.7244100000        2.7550700000       17.2274000000 N         0.0000000000         0.0000000000        76.5275229530      -22.9644718580      -36.5154821700
atom         3.9212100000        4.9451100000       18.7857000000 N         0.0000000000         0.0000000000       -53.1639584804       63.8293330417      -42.4610611857
atom         1.6733800000        2.5533000000       27.6423000000 N         0.0000000000         0.0000000000        -2.8008522550       45.2592114681      -58.4468027424
atom         2.9852900000        1.4224800000       25.9895000000 N         0.0000000000         0.0000000000       -42.4289056225       18.2218273877      -30.0938352149
atom         4.4754300000        2.9618100000       24.8588000000 N         0.0000000000         0.0000000000         2.8502004806      -45.3515775265       58.4806314807
atom         3.1638300000        4.0925900000       26.5118000000 N         0.0000000000         0.0000000000        42.3590602586      -18.2831077332       29.9842934000
atom         0.2356100000        2.7596300000        0.2736200000 N         0.0000000000         0.0000000000       -76.5026919218       22.9569951071       36.5455864975
atom         3.8040400000        0.5696000000       26.7151000000 N         0.0000000000         0.0000000000        53.1805293620      -63.8251921482       42.3812894769
atom         5.6830000000        2.7550700000       24.2275000000 N         0.0000000000         0.0000000000        76.5123707771      -22.9737750269      -36.5433356931
atom         2.3451000000        4.9451100000       25.7857000000 N         0.0000000000         0.0000000000       -53.1658416146       63.8208848161      -42.3683805847
atom         3.9232000000        8.4766100000        3.1413100000 N         0.0000000000         0.0000000000        -2.8555477272      -45.3612001613      -58.4640736757
atom         5.2347900000        9.6073900000        1.4883100000 N         0.0000000000         0.0000000000       -42.3628336035      -18.2784293036      -29.9973632902
atom         0.1905500000        8.0681000000        0.3578500000 N         0.0000000000         0.0000000000         2.8034084424       45.2554597879       58.4070527439
atom         5.4133400000        6.9372800000        2.0106300000 N         0.0000000000         0.0000000000        42.4232547238       18.2095975395       30.0628492647
atom         2.7156300000        8.2698700000        3.7726300000 N         0.0000000000         0.0000000000       -76.5169262405      -22.9670988446       36.5370592980
atom         6.0535300000       10.4599000000        2.2144100000 N         0.0000000000         0.0000000000        53.1572095433       63.8381838460       42.3965774616
atom         1.6283100000        8.2744300000       27.7265000000 N         0.0000000000         0.0000000000        76.5063475980       22.9498311531      -36.5231724963
atom         4.5945900000        6.0844000000        1.2850000000 N         0.0000000000         0.0000000000       -53.1891747502      -63.8184245753      -42.3797980862
atom         2.3470900000        8.4766100000       10.1413000000 N         0.0000000000         0.0000000000        -2.8552210617      -45.3685820669      -58.4225525797
atom         3.6586800000        9.6073900000        8.4883400000 N         0.0000000000         0.0000000000       -42.3614581542      -18.2719341998      -29.9926360908
atom         5.1491400000        8.0681000000        7.3578800000 N         0.0000000000         0.0000000000         2.8026164934       45.2586798682       58.4005886713
atom         3.8372300000        6.9372800000        9.0106500000 N         0.0000000000         0.0000000000        42.4262505849       18.2087490768       30.0672698651
atom         1.1395200000        8.2698700000       10.7727000000 N         0.0000000000         0.0000000000       -76.5235102048      -22.9645638874       36.5161274396
atom         4.4774100000       10.4599000000        9.2144400000 N         0.0000000000         0.0000000000        53.1690983794       63.8391820244       42.4131146175
atom         6.3566500000        8.2744300000        6.7264100000 N         0.0000000000         0.0000000000        76.5003751289       22.9503669619      -36.5191880119
atom         3.0184700000        6.0844000000        8.2850200000 N         0.0000000000         0.0000000000       -53.1750321537      -63.8183902566      -42.3795911799
atom         0.7709700000        8.4766100000       17.1414000000 N         0.0000000000         0.0000000000        -2.8554950121      -45.3612379103      -58.4823280503
atom         2.0825700000        9.6073900000       15.4884000000 N         0.0000000000         0.0000000000       -42.3725453117      -18.2791300365      -30.0207263684
atom         3.5730300000        8.0681000000       14.3579000000 N         0.0000000000         0.0000000000         2.7979444641       45.2605271479       58.3900366140
atom         2.2611200000        6.9372800000       16.0107000000 N         0.0000000000         0.0000000000        42.4191086027       18.2085691814       30.0279570712
atom         6.0981100000        8.2698700000       17.7727000000 N         0.0000000000         0.0000000000       -76.5157805451      -22.9712878937       36.5380571692
atom         2.9013000000       10.4599000000       16.2145000000 N         0.0000000000         0.0000000000        53.1650792206       63.8364991488       42.3679559398
atom         4.7805400000        8.2744300000       13.7264000000 N         0.0000000000         0.0000000000        76.5028681040       22.9485008791      -36.4875021803
atom         1.4423600000        6.0844100000       15.2850000000 N         0.0000000000         0.0000000000       -53.1862476450      -63.8297629386      -42.3509137447
atom         5.7295600000        8.4766100000       24.1414000000 N         0.0000000000         0.0000000000        -2.8484651778      -45.3514773136      -58.4799702697
atom         0.5064600000        9.6073900000       22.4884000000 N         0.0000000000         0.0000000000       -42.3646336035      -18.2757998568      -29.9858243826
atom         1.9969100000        8.0681000000       21.3579000000 N         0.0000000000         0.0000000000         2.8110574252       45.2538987898       58.4152430702
atom         0.6850100000        6.9372800000       23.0107000000 N         0.0000000000         0.0000000000        42.4090155090       18.2094050844       30.0651507549
atom         4.5219900000        8.2698700000       24.7727000000 N         0.0000000000         0.0000000000       -76.5071190270      -22.9717763041       36.5419141227
atom         1.3251900000       10.4599000000       23.2145000000 N         0.0000000000         0.0000000000        53.1631453277       63.8323342247       42.3645404242
atom         3.2044300000        8.2744300000       20.7265000000 N         0.0000000000         0.0000000000        76.4989768319       22.9490896423      -36.5948999056
atom         6.4009500000        6.0844000000       22.2851000000 N         0.0000000000         0.0000000000       -53.1809014540      -63.8205971629      -42.4206953888
atom         6.3879400000        1.6147000000        5.5031500000 C         0.0000000000         0.0000000000        82.3370596918       42.4693747001       30.4557926754
atom         1.6555400000        1.8893200000        3.7099800000 C         0.0000000000         0.0000000000        22.0616696937       34.5963117318       97.9691123985
atom         2.6831600000        3.9001400000        4.9980400000 C         0.0000000000         0.0000000000       -82.3692613948      -42.4692161136      -30.4736311329
atom         0.8805100000        3.6257700000        6.7910600000 C         0.0000000000         0.0000000000       -22.0336758671      -34.5979337523      -97.9448297114
atom         4.8118300000        1.6147000000       12.5032000000 C         0.0000000000         0.0000000000        82.3271354726       42.4846931716       30.4173818917
atom         6.6141300000        1.8893200000       10.7100000000 C         0.0000000000         0.0000000000        22.0622714910       34.5905043055       97.9554004075
atom         1.1070500000        3.9001400000       11.9981000000 C         0.0000000000         0.0000000000       -82.3847513897      -42.4474128262      -30.5150123512
atom         5.8391000000        3.6257700000       13.7911000000 C         0.0000000000         0.0000000000       -22.0457768129      -34.6026181424      -97.9516969529
atom         3.2357200000        1.6147000000       19.5032000000 C         0.0000000000         0.0000000000        82.3393364184       42.4711403814       30.4712923439
atom         5.0380200000        1.8893200000       17.7100000000 C         0.0000000000         0.0000000000        22.0667249685       34.6131450804       98.0039834231
atom         6.0656400000        3.9001400000       18.9981000000 C         0.0000000000         0.0000000000       -82.3644798907      -42.4755521352      -30.4599434797
atom         4.2629800000        3.6257700000       20.7911000000 C         0.0000000000         0.0000000000       -22.0215133789      -34.5966393814      -97.9471202749
atom         1.6596000000        1.6147000000       26.5032000000 C         0.0000000000         0.0000000000        82.3482325866       42.4499054241       30.5010664673
atom         3.4619000000        1.8893200000       24.7101000000 C         0.0000000000         0.0000000000        22.0634972246       34.5907408472       97.9285693063
atom         4.4895300000        3.9001400000       25.9981000000 C         0.0000000000         0.0000000000       -82.3663898715      -42.4769760473      -30.4584401923
atom         2.6868700000        3.6257600000       27.7911000000 C         0.0000000000         0.0000000000       -22.0310935115      -34.5809064586      -97.9025527263
atom         3.9091000000        9.4149400000        2.0019800000 C         0.0000000000         0.0000000000        82.3729334381      -42.4727862410       30.4771660902
atom         5.7117500000        9.1405700000        0.2089600000 C         0.0000000000         0.0000000000        22.0332524994      -34.5983965477       97.9401341818
atom         0.2043200000        7.1295000000        1.4968700000 C         0.0000000000         0.0000000000       -82.3381202642       42.4737421787      -30.4482930068
atom         4.9367200000        7.4041200000        3.2900500000 C         0.0000000000         0.0000000000       -22.0585166663       34.5966725170      -97.9709255725
atom         2.3329900000        9.4149400000        9.0020100000 C         0.0000000000         0.0000000000        82.3686064515      -42.4809957018       30.4762035077
atom         4.1356400000        9.1405700000        7.2089900000 C         0.0000000000         0.0000000000        22.0375190079      -34.5973878441       97.9464678618
atom         5.1629100000        7.1295000000        8.4969000000 C         0.0000000000         0.0000000000       -82.3376745688       42.4717749129      -30.4543493216
atom         3.3606100000        7.4041200000       10.2901000000 C         0.0000000000         0.0000000000       -22.0615528065       34.6064672894      -98.0039823830
atom         0.7568800000        9.4149400000       16.0020000000 C         0.0000000000         0.0000000000        82.3843492609      -42.4526045240       30.5158226635
atom         2.5595300000        9.1405700000       14.2090000000 C         0.0000000000         0.0000000000        22.0441776644      -34.6036856211       97.9517116170
atom         3.5868000000        7.1295000000       15.4969000000 C         0.0000000000         0.0000000000       -82.3277272891       42.4848470505      -30.4174510733
atom         1.7845000000        7.4041200000       17.2901000000 C         0.0000000000         0.0000000000       -22.0616016707       34.5871739129      -97.9547622571
atom         5.7154700000        9.4149400000       23.0021000000 C         0.0000000000         0.0000000000        82.3583415274      -42.4810073857       30.4560668717
atom         0.9834200000        9.1405600000       21.2090000000 C         0.0000000000         0.0000000000        22.0378477218      -34.5984482035       97.9738799228
atom         2.0106900000        7.1295000000       22.4969000000 C         0.0000000000         0.0000000000       -82.3366441762       42.4824726656      -30.4170217451
atom         0.2083900000        7.4041200000       24.2901000000 C         0.0000000000         0.0000000000       -22.0590102800       34.5918015381      -97.9511038135
atom         4.2092400000        2.1263000000        6.8417900000 O         0.0000000000         0.0000000000       232.1244096568      141.5987632891       91.8646565911
atom         5.1725700000        3.5494000000        8.2257600000 O         0.0000000000         0.0000000000         8.2952820594     -184.2063724398     -225.3506139563
atom         1.6060900000        0.2384800000        6.8313300000 O         0.0000000000         0.0000000000        88.2026072730       82.7783339795     -267.8526324712
atom         3.0411600000        0.2250500000        5.1622600000 O         0.0000000000         0.0000000000      -244.6696856032       86.9715389816      125.2767903115
atom         4.8617200000        3.3881300000        3.6593000000 O         0.0000000000         0.0000000000      -232.1571371877     -141.5474277875      -91.8750453330
atom         3.8981200000        1.9652700000        2.2752900000 O         0.0000000000         0.0000000000        -8.2664343818      184.2266993078      225.3492239371
atom         0.9306400000        5.2762100000        3.6693900000 O         0.0000000000         0.0000000000       -88.2775539141      -82.7794853039      267.8355610422
atom         6.0296900000        5.2894800000        5.3379800000 O         0.0000000000         0.0000000000       244.7208869991      -86.9173309167     -125.1742599189
atom         2.6331300000        2.1263000000       13.8418000000 O         0.0000000000         0.0000000000       232.1246925324      141.6017086530       91.8859910040
atom         3.5964600000        3.5494000000       15.2258000000 O         0.0000000000         0.0000000000         8.2938125183     -184.2113599044     -225.3459369226
atom         6.5646800000        0.2384800000       13.8314000000 O         0.0000000000         0.0000000000        88.2009385171       82.7846133548     -267.8630935636
atom         1.4650500000        0.2250500000       12.1623000000 O         0.0000000000         0.0000000000      -244.6736707019       86.9693668197      125.2932995351
atom         3.2856100000        3.3881400000       10.6593000000 O         0.0000000000         0.0000000000      -232.1559359105     -141.5499036626      -91.8741683935
atom         2.3220100000        1.9652700000        9.2753200000 O         0.0000000000         0.0000000000        -8.2628210613      184.2213368439      225.3336665823
atom         5.8892300000        5.2762100000       10.6694000000 O         0.0000000000         0.0000000000       -88.2791797421      -82.7767985965      267.8256996427
atom         4.4535800000        5.2894800000       12.3380000000 O         0.0000000000         0.0000000000       244.7241153572      -86.9178201786     -125.1883813707
atom         1.0570200000        2.1262900000       20.8418000000 O         0.0000000000         0.0000000000       232.1243130385      141.6061362782       91.8862888752
atom         2.0203500000        3.5494000000       22.2258000000 O         0.0000000000         0.0000000000         8.2921062506     -184.2103221798     -225.3438153521
atom         4.9885700000        0.2384800000       20.8314000000 O         0.0000000000         0.0000000000        88.2029978122       82.7756447175     -267.8510203616
atom         6.4236400000        0.2250500000       19.1623000000 O         0.0000000000         0.0000000000      -244.6768299970       86.9712429077      125.2901633006
atom         1.7095000000        3.3881300000       17.6593000000 O         0.0000000000         0.0000000000      -232.1573447327     -141.5476583930      -91.8783587198
atom         0.7459000000        1.9652700000       16.2753000000 O         0.0000000000         0.0000000000        -8.2737424800      184.2310913371      225.3510855738
atom         4.3131100000        5.2762100000       17.6694000000 O         0.0000000000         0.0000000000       -88.2754941690      -82.7899780418      267.8801868672
atom         2.8774700000        5.2894800000       19.3380000000 O         0.0000000000         0.0000000000       244.7192332631      -86.9192446350     -125.1462581459
atom         6.0156100000        2.1263000000       27.8419000000 O         0.0000000000         0.0000000000       232.1244097754      141.5959709526       91.8510969888
atom         0.2139800000        3.5494000000        1.2257300000 O         0.0000000000         0.0000000000         8.2950502429     -184.2020727712     -225.3439683795
atom         3.4124500000        0.2384800000       27.8314000000 O         0.0000000000         0.0000000000        88.2082715585       82.7758440789     -267.8552383132
atom         4.8475300000        0.2250500000       26.1623000000 O         0.0000000000         0.0000000000      -244.6790060850       86.9732569332      125.2914693554
atom         6.6680800000        3.3881300000       24.6594000000 O         0.0000000000         0.0000000000      -232.1520136071     -141.5452328965      -91.8737789187
atom         5.7044900000        1.9652700000       23.2754000000 O         0.0000000000         0.0000000000        -8.2642118133      184.2238817820      225.3438928116
atom         2.7370000000        5.2762100000       24.6695000000 O         0.0000000000         0.0000000000       -88.2796252245      -82.7757610847      267.8237478926
atom         1.3013600000        5.2894800000       26.3381000000 O         0.0000000000         0.0000000000       244.7181469328      -86.9156470709     -125.1874610775
atom         1.7305400000        8.9029400000        3.3407300000 O         0.0000000000         0.0000000000       232.1574117855     -141.5504717798       91.8756669034
atom         2.6941400000        7.4800700000        4.7247300000 O         0.0000000000         0.0000000000         8.2651740224      184.2266029266     -225.3460521067
atom         5.6616200000       10.7910000000        3.3306300000 O         0.0000000000         0.0000000000        88.2801761232      -82.7815217513     -267.8347601907
atom         0.5625700000       10.8043000000        1.6620500000 O         0.0000000000         0.0000000000      -244.7189813700      -86.9284975438      125.1693019011
atom         2.3830200000        7.6411000000        0.1582400000 O         0.0000000000         0.0000000000      -232.1252335688      141.5955662694      -91.8590981475
atom         1.6499500000        9.0642000000       26.7744000000 O         0.0000000000         0.0000000000        -8.2993065106     -184.2004376011      225.3394820979
atom         4.9861700000        5.7532800000        0.1686900000 O         0.0000000000         0.0000000000       -88.1968083374       82.7759113447      267.8504626510
atom         3.5511000000        5.7398500000        1.8377700000 O         0.0000000000         0.0000000000       244.6729874005       86.9702383430     -125.2762955148
atom         0.1544300000        8.9029300000       10.3408000000 O         0.0000000000         0.0000000000       232.1548772540     -141.5463670023       91.8772056924
atom         1.1180300000        7.4800700000       11.7248000000 O         0.0000000000         0.0000000000         8.2734957534      184.2294917628     -225.3506474234
atom         4.0855100000       10.7910000000       10.3307000000 O         0.0000000000         0.0000000000        88.2794445476      -82.7860115332     -267.8600950994
atom         5.5211600000       10.8043000000        8.6620800000 O         0.0000000000         0.0000000000      -244.7285556364      -86.9294182627      125.1732577901
atom         0.8069100000        7.6411000000        7.1582600000 O         0.0000000000         0.0000000000      -232.1224495102      141.5973565957      -91.8643798645
atom         6.3782800000        9.0642000000        5.7743000000 O         0.0000000000         0.0000000000        -8.2958955125     -184.2051691524      225.3459201297
atom         3.4100600000        5.7532800000        7.1687200000 O         0.0000000000         0.0000000000       -88.2020999409       82.7762585302      267.8494039945
atom         1.9749900000        5.7398500000        8.8377900000 O         0.0000000000         0.0000000000       244.6668638200       86.9693865929     -125.2764674638
atom         5.1130200000        8.9029300000       17.3408000000 O         0.0000000000         0.0000000000       232.1567074337     -141.5475745472       91.8740927313
atom         6.0766200000        7.4800700000       18.7248000000 O         0.0000000000         0.0000000000         8.2646485399      184.2233283288     -225.3413246944
atom         2.5094000000       10.7910000000       17.3307000000 O         0.0000000000         0.0000000000        88.2788413788      -82.7783744715     -267.8252614923
atom         3.9450500000       10.8043000000       15.6621000000 O         0.0000000000         0.0000000000      -244.7271236351      -86.9288614036      125.1881716970
atom         5.7655000000        7.6411000000       14.1583000000 O         0.0000000000         0.0000000000      -232.1248770168      141.6016855924      -91.8861830333
atom         4.8021700000        9.0642000000       12.7743000000 O         0.0000000000         0.0000000000        -8.2939831237     -184.2111984806      225.3456832565
atom         1.8339500000        5.7532800000       14.1687000000 O         0.0000000000         0.0000000000       -88.2037059957       82.7858437474      267.8608377688
atom         0.3988700000        5.7398500000       15.8378000000 O         0.0000000000         0.0000000000       244.6713625184       86.9712586362     -125.2931988965
atom         3.5369100000        8.9029300000       24.3408000000 O         0.0000000000         0.0000000000       232.1515985173     -141.5468848595       91.8744323719
atom         4.5005100000        7.4800700000       25.7248000000 O         0.0000000000         0.0000000000         8.2597673953      184.2230285417     -225.3434316007
atom         0.9332900000       10.7910000000       24.3307000000 O         0.0000000000         0.0000000000        88.2791023769      -82.7781438660     -267.8229407734
atom         2.3689300000       10.8043000000       22.6621000000 O         0.0000000000         0.0000000000      -244.7194172731      -86.9263882959      125.1866057085
atom         4.1893800000        7.6410900000       21.1583000000 O         0.0000000000         0.0000000000      -232.1283929825      141.6043126033      -91.8461896568
atom         3.2260600000        9.0642000000       19.7743000000 O         0.0000000000         0.0000000000        -8.2961275087     -184.2105963032      225.3869990063
atom         0.2578400000        5.7532800000       21.1688000000 O         0.0000000000         0.0000000000       -88.1934836924       82.7745682038      267.8420267479
atom         5.3574600000        5.7398500000       22.8378000000 O         0.0000000000         0.0000000000       244.6650883950       86.9723117822     -125.2417508139
atom         5.9593800000        0.6607000000        5.8159800000 H         0.0000000000         0.0000000000        57.7561710768      117.4459916516      -30.0580035590
atom         5.7564400000        2.0374700000        4.7204100000 H         0.0000000000         0.0000000000        79.9644411411      -45.0611042974       86.5076744707
atom         0.8084500000        2.3083700000        3.1583700000 H         0.0000000000         0.0000000000        95.6164291341      -49.9209631698       71.7784058725
atom         2.0895500000        1.0657200000        3.1497100000 H         0.0000000000         0.0000000000       -44.8330745874      103.7884853810       69.1029430629
atom         3.1120700000        4.8541200000        4.6855400000 H         0.0000000000         0.0000000000       -57.8034491749     -117.4563834438       30.0164358675
atom         3.3144700000        3.4768800000        5.7807100000 H         0.0000000000         0.0000000000       -79.9460520677       45.1272347843      -86.5037313055
atom         1.7274600000        3.2067300000        7.3428800000 H         0.0000000000         0.0000000000       -95.6014228665       49.9261828243      -71.8041895054
atom         0.4464000000        4.4493900000        7.3512400000 H         0.0000000000         0.0000000000        44.8429821323     -103.7867138577      -69.0992033038
atom         4.3832700000        0.6607000000       12.8160000000 H         0.0000000000         0.0000000000        57.7557956275      117.4438722100      -30.0517604182
atom         4.1803300000        2.0374700000       11.7204000000 H         0.0000000000         0.0000000000        79.9652934113      -45.0632123624       86.5240634954
atom         5.7670400000        2.3083700000       10.1584000000 H         0.0000000000         0.0000000000        95.6170769582      -49.9216556248       71.7778836635
atom         0.5134400000        1.0657200000       10.1497000000 H         0.0000000000         0.0000000000       -44.8349017869      103.7886425473       69.1083612273
atom         1.5359600000        4.8541200000       11.6856000000 H         0.0000000000         0.0000000000       -57.8019965732     -117.4571444418       30.0152677502
atom         1.7383500000        3.4768800000       12.7807000000 H         0.0000000000         0.0000000000       -79.9424424183       45.1216857073      -86.4857993528