begin
comment generated by PY
lattice         6.5347004000         0.0000000000         0.0000000000
lattice         0.0000000000        11.0296001000         0.0000000000
lattice         0.2302529000         0.0000000000        28.0001011000
atom         6.4017100000        2.5533000000        6.6421800000 N         0.0000000000         0.0000000000        -6.7977422219        8.5715134539        9.9863472561
atom         1.1789200000        1.4224800000        4.9894000000 N         0.0000000000         0.0000000000         1.3276418702       -0.7423651616        2.2316614733
atom         2.6690600000        2.9618100000        3.8587200000 N         0.0000000000         0.0000000000         6.8264295436       -8.5806454309       -9.9873849807
atom         1.3574700000        4.0925900000        5.5117100000 N         0.0000000000         0.0000000000        -1.3475200625        0.7371765383       -2.2361813407
atom         5.1942000000        2.7596300000        7.2736400000 N         0.0000000000         0.0000000000        11.0878343319        0.6586323118       -8.5418345286
atom         1.9976800000        0.5696000000        5.7150300000 N         0.0000000000         0.0000000000        -7.2571775199       -0.7355392394      -10.8046046812
atom         3.8766300000        2.7550700000        3.2274000000 N         0.0000000000         0.0000000000       -11.0886414511       -0.6593241282        8.5239164828
atom         0.5387400000        4.9451100000        4.7856100000 N         0.0000000000         0.0000000000         7.2738733567        0.7513126542       10.8097471834
atom         4.8256000000        2.5533000000       13.6422000000 N         0.0000000000         0.0000000000        -6.7976961008        8.5842889975       10.0065021750
atom         6.1375100000        1.4224800000       11.9894000000 N         0.0000000000         0.0000000000         1.3201702526       -0.7586689690        2.2804575929
atom         1.0929500000        2.9618100000       10.8587000000 N         0.0000000000         0.0000000000         6.8240773677       -8.5552327070       -9.9509493149
atom         6.3160600000        4.0925900000       12.5117000000 N         0.0000000000         0.0000000000        -1.3639391727        0.7265686862       -2.1942342039
atom         3.6180900000        2.7596300000       14.2737000000 N         0.0000000000         0.0000000000        11.0801782299        0.6378547580       -8.5825133353
atom         0.4215600000        0.5696000000       12.7151000000 N         0.0000000000         0.0000000000        -7.2341630930       -0.7329333975      -10.8440843394
atom         2.3005200000        2.7550700000       10.2274000000 N         0.0000000000         0.0000000000       -11.0866351834       -0.6441272271        8.5458701245
atom         5.4973300000        4.9451100000       11.7856000000 N         0.0000000000         0.0000000000         7.2586533950        0.7486376307       10.8453065484
atom         3.2494900000        2.5533000000       20.6422000000 N         0.0000000000         0.0000000000        -6.8118783378        8.5819137610       10.0166026951
atom         4.5614000000        1.4224800000       18.9895000000 N         0.0000000000         0.0000000000         1.3432538612       -0.7249313873        2.1734105290
atom         6.0515400000        2.9618100000       17.8588000000 N         0.0000000000         0.0000000000         6.8329556787       -8.6034061918      -10.0222525293
atom         4.7399500000        4.0925900000       19.5118000000 N         0.0000000000         0.0000000000        -1.3407172009        0.7573083967       -2.2763989365
atom         2.0419800000        2.7596300000       21.2737000000 N         0.0000000000         0.0000000000        11.0814696206        0.6313055624       -8.5843120580
atom         5.3801500000        0.5696000000       19.7151000000 N         0.0000000000         0.0000000000        -7.2345320618       -0.7402897123      -10.8196632190
atom         0.7244100000        2.7550700000       17.2274000000 N         0.0000000000         0.0000000000       -11.0926770470       -0.6462718580        8.5545178300
atom         3.9212100000        4.9451100000       18.7857000000 N         0.0000000000         0.0000000000         7.3295415196        0.7659330417       10.6915388143
atom         1.6733800000        2.5533000000       27.6423000000 N         0.0000000000         0.0000000000        -6.7966122550        8.5418114681        9.9375972576
atom         2.9852900000        1.4224800000       25.9895000000 N         0.0000000000         0.0000000000         1.3186943775       -0.7318726123        2.2161647851
atom         4.4754300000        2.9618100000       24.8588000000 N         0.0000000000         0.0000000000         6.8153604806       -8.5787775265       -9.9780685193
atom         3.1638300000        4.0925900000       26.5118000000 N         0.0000000000         0.0000000000        -1.3306397414        0.7366922668       -2.2656066000
atom         0.2356100000        2.7596300000        0.2736200000 N         0.0000000000         0.0000000000        11.0923080782        0.6676951071       -8.5281135025
atom         3.8040400000        0.5696000000       26.7151000000 N         0.0000000000         0.0000000000        -7.2343706380       -0.7476921482      -10.8072105231
atom         5.6830000000        2.7550700000       24.2275000000 N         0.0000000000         0.0000000000       -11.0950292229       -0.6634750269        8.5215643069
atom         2.3451000000        4.9451100000       25.7857000000 N         0.0000000000         0.0000000000         7.2624583854        0.7471848161       10.8380194153
atom         3.9232000000        8.4766100000        3.1413100000 N         0.0000000000         0.0000000000        -6.8257377272       -8.5794001613        9.9833263243
atom         5.2347900000        9.6073900000        1.4883100000 N         0.0000000000         0.0000000000         1.3472663965        0.7345706964        2.2340367098
atom         0.1905500000        8.0681000000        0.3578500000 N         0.0000000000         0.0000000000         6.7943984424        8.5712597879       -9.9863472561
atom         5.4133400000        6.9372800000        2.0106300000 N         0.0000000000         0.0000000000        -1.3228452762       -0.7440024605       -2.2359507353
atom         2.7156300000        8.2698700000        3.7726300000 N         0.0000000000         0.0000000000        11.0864737595       -0.6515988446       -8.5331407020
atom         6.0535300000       10.4599000000        2.2144100000 N         0.0000000000         0.0000000000        -7.2822904567        0.7593838460      -10.8011225384
atom         1.6283100000        8.2744300000       27.7265000000 N         0.0000000000         0.0000000000       -11.0840524020        0.6494311531        8.5517275037
atom         4.5945900000        6.0844000000        1.2850000000 N         0.0000000000         0.0000000000         7.2441252498       -0.7345245753       10.8085019138
atom         2.3470900000        8.4766100000       10.1413000000 N         0.0000000000         0.0000000000        -6.8372910617       -8.6048820669       10.0294474203
atom         3.6586800000        9.6073900000        8.4883400000 N         0.0000000000         0.0000000000         1.3493418458        0.7414658002        2.2390639092
atom         5.1491400000        8.0681000000        7.3578800000 N         0.0000000000         0.0000000000         6.7982264934        8.5754798682       -9.9936113287
atom         3.8372300000        6.9372800000        9.0106500000 N         0.0000000000         0.0000000000        -1.3278494151       -0.7407509232       -2.2216301349
atom         1.1395200000        8.2698700000       10.7727000000 N         0.0000000000         0.0000000000        11.0963897952       -0.6466638874       -8.5532725604
atom         4.4774100000       10.4599000000        9.2144400000 N         0.0000000000         0.0000000000        -7.2774016206        0.7727820244      -10.7667853825
atom         6.3566500000        8.2744300000        6.7264100000 N         0.0000000000         0.0000000000       -11.0903248711        0.6531669619        8.5519119881
atom         3.0184700000        6.0844000000        8.2850200000 N         0.0000000000         0.0000000000         7.2599678463       -0.7286902566       10.8096088201
atom         0.7709700000        8.4766100000       17.1414000000 N         0.0000000000         0.0000000000        -6.8208950121       -8.5587379103        9.9515719497
atom         2.0825700000        9.6073900000       15.4884000000 N         0.0000000000         0.0000000000         1.3637546883        0.7247699635        2.1928736316
atom         3.5730300000        8.0681000000       14.3579000000 N         0.0000000000         0.0000000000         6.7978344641        8.5847271479      -10.0069633860
atom         2.2611200000        6.9372800000       16.0107000000 N         0.0000000000         0.0000000000        -1.3228913973       -0.7582308186       -2.2794429288
atom         6.0981100000        8.2698700000       17.7727000000 N         0.0000000000         0.0000000000        11.0871194549       -0.6561878937       -8.5301428308
atom         2.9013000000       10.4599000000       16.2145000000 N         0.0000000000         0.0000000000        -7.2504207794        0.7594991488      -10.8466440602
atom         4.7805400000        8.2744300000       13.7264000000 N         0.0000000000         0.0000000000       -11.0804318960        0.6379008791        8.5826978197
atom         1.4423600000        6.0844100000       15.2850000000 N         0.0000000000         0.0000000000         7.2384523550       -0.7346629386       10.8413862553
atom         5.7295600000        8.4766100000       24.1414000000 N         0.0000000000         0.0000000000        -6.8152451778       -8.5790773136        9.9785297303
atom         0.5064600000        9.6073900000       22.4884000000 N         0.0000000000         0.0000000000         1.3472663965        0.7256001432        2.2225756174
atom         1.9969100000        8.0681000000       21.3579000000 N         0.0000000000         0.0000000000         6.8012474252        8.5704987898       -9.9835569298
atom         0.6850100000        6.9372800000       23.0107000000 N         0.0000000000         0.0000000000        -1.3217844910       -0.7437949156       -2.2380492451
atom         4.5219900000        8.2698700000       24.7727000000 N         0.0000000000         0.0000000000        11.0979809730       -0.6616763041       -8.5236858773
atom         1.3251900000       10.4599000000       23.2145000000 N         0.0000000000         0.0000000000        -7.2568546723        0.7534342247      -10.8464595758
atom         3.2044300000        8.2744300000       20.7265000000 N         0.0000000000         0.0000000000       -11.0927231681        0.7078896423        8.4495000944
atom         6.4009500000        6.0844000000       22.2851000000 N         0.0000000000         0.0000000000         7.2708985460       -0.7297971629       10.7722046112
atom         6.3879400000        1.6147000000        5.5031500000 C         0.0000000000         0.0000000000        -4.4280403082        5.1270747001        3.5959926754
atom         1.6555400000        1.8893200000        3.7099800000 C         0.0000000000         0.0000000000        -5.1029303063       14.5645117318        8.2805123985
atom         2.6831600000        3.9001400000        4.9980400000 C         0.0000000000         0.0000000000         4.4304386052       -5.1554161136       -3.6068311329
atom         0.8805100000        3.6257700000        6.7910600000 C         0.0000000000         0.0000000000         5.1116241329      -14.5443337523       -8.2886297114
atom         4.8118300000        1.6147000000       12.5032000000 C         0.0000000000         0.0000000000        -4.4372645274        5.1443931716        3.5461818917
atom         6.6141300000        1.8893200000       10.7100000000 C         0.0000000000         0.0000000000        -5.0946285090       14.5533043055        8.2649004075
atom         1.1070500000        3.9001400000       11.9981000000 C         0.0000000000         0.0000000000         4.4163486103       -5.1492128262       -3.6766123512
atom         5.8391000000        3.6257700000       13.7911000000 C         0.0000000000         0.0000000000         5.1021231871      -14.5338181424       -8.3130969529
atom         3.2357200000        1.6147000000       19.5032000000 C         0.0000000000         0.0000000000        -4.4277635816        5.1212403814        3.6072923439
atom         5.0380200000        1.8893200000       17.7100000000 C         0.0000000000         0.0000000000        -5.1157750315       14.5825450804        8.3429834231
atom         6.0656400000        3.9001400000       18.9981000000 C         0.0000000000         0.0000000000         4.4348201093       -5.1588521352       -3.5894434797
atom         4.2629800000        3.6257700000       20.7911000000 C         0.0000000000         0.0000000000         5.1102866211      -14.5472393814       -8.2694202749
atom         1.6596000000        1.6147000000       26.5032000000 C         0.0000000000         0.0000000000        -4.4223674134        5.1163054241        3.6545664673
atom         3.4619000000        1.8893200000       24.7101000000 C         0.0000000000         0.0000000000        -5.1092027754       14.5668408472        8.2328693063
atom         4.4895300000        3.9001400000       25.9981000000 C         0.0000000000         0.0000000000         4.4272101285       -5.1576760473       -3.5832401923
atom         2.6868700000        3.6257600000       27.7911000000 C         0.0000000000         0.0000000000         5.1148064885      -14.5286064586       -8.2345527263
atom         3.9091000000        9.4149400000        2.0019800000 C         0.0000000000         0.0000000000        -4.4235665619       -5.1649862410        3.6117660902
atom         5.7117500000        9.1405700000        0.2089600000 C         0.0000000000         0.0000000000        -5.1220475006      -14.5533965477        8.2823341818
atom         0.2043200000        7.1295000000        1.4968700000 C         0.0000000000         0.0000000000         4.4266797358        5.1295421787       -3.5846930068
atom         4.9367200000        7.4041200000        3.2900500000 C         0.0000000000         0.0000000000         5.1040833337       14.5655725170       -8.2836255725
atom         2.3329900000        9.4149400000        9.0020100000 C         0.0000000000         0.0000000000        -4.4288935485       -5.1624957018        3.6024035077
atom         4.1356400000        9.1405700000        7.2089900000 C         0.0000000000         0.0000000000        -5.1073809921      -14.5439878441        8.2890678618
atom         5.1629100000        7.1295000000        8.4969000000 C         0.0000000000         0.0000000000         4.4273254312        5.1267749129       -3.5920493216
atom         3.3606100000        7.4041200000       10.2901000000 C         0.0000000000         0.0000000000         5.1116471935       14.5837672894       -8.3227823830
atom         0.7568800000        9.4149400000       16.0020000000 C         0.0000000000         0.0000000000        -4.4133507391       -5.1609045240        3.6729226635
atom         2.5595300000        9.1405700000       14.2090000000 C         0.0000000000         0.0000000000        -5.1033223356      -14.5362856211        8.3141116170
atom         3.5868000000        7.1295000000       15.4969000000 C         0.0000000000         0.0000000000         4.4365727109        5.1443470505       -3.5462510733
atom         1.7845000000        7.4041200000       17.2901000000 C         0.0000000000         0.0000000000         5.0937983293       14.5527739129       -8.2644622571
atom         5.7154700000        9.4149400000       23.0021000000 C         0.0000000000         0.0000000000        -4.4349584726       -5.1677073857        3.5781668717
atom         0.9834200000        9.1405600000       21.2090000000 C         0.0000000000         0.0000000000        -5.1261522782      -14.5456482035        8.3370799228
atom         2.0106900000        7.1295000000       22.4969000000 C         0.0000000000         0.0000000000         4.4278558238        5.1407726656       -3.5442217451
atom         0.2083900000        7.4041200000       24.2901000000 C         0.0000000000         0.0000000000         5.0950897200       14.5572015381       -8.2601038135
atom         4.2092400000        2.1263000000        6.8417900000 O         0.0000000000         0.0000000000         3.6154096568       -5.2672367109       -1.2821434089
atom         5.1725700000        3.5494000000        8.2257600000 O         0.0000000000         0.0000000000        -0.9746079406        5.1826275602        6.1943860437
atom         1.6060900000        0.2384800000        6.8313300000 O         0.0000000000         0.0000000000        -3.4550927270       -4.3376660205       12.1893675288
atom         3.0411600000        0.2250500000        5.1622600000 O         0.0000000000         0.0000000000        17.1173143968       -5.4821610184       -7.1902096885
atom         4.8617200000        3.3881300000        3.6593000000 O         0.0000000000         0.0000000000        -3.6091371877        5.2605722125        1.2879546670
atom         3.8981200000        1.9652700000        2.2752900000 O         0.0000000000         0.0000000000         0.9702956182       -5.1663006922       -6.1867760629
atom         0.9306400000        5.2762100000        3.6693900000 O         0.0000000000         0.0000000000         3.4449460859        4.3341146961      -12.1754389578
atom         6.0296900000        5.2894800000        5.3379800000 O         0.0000000000         0.0000000000       -17.1301130009        5.4924690833        7.1907400811
atom         2.6331300000        2.1263000000       13.8418000000 O         0.0000000000         0.0000000000         3.6286925324       -5.2552913470       -1.2656089960
atom         3.5964600000        3.5494000000       15.2258000000 O         0.0000000000         0.0000000000        -0.9763374817        5.1866400956        6.2050630774
atom         6.5646800000        0.2384800000       13.8314000000 O         0.0000000000         0.0000000000        -3.4557614829       -4.3302866452       12.1779064364
atom         1.4650500000        0.2250500000       12.1623000000 O         0.0000000000         0.0000000000        17.0963292981       -5.4780331803       -7.1707004649
atom         3.2856100000        3.3881400000       10.6593000000 O         0.0000000000         0.0000000000        -3.6109359105        5.2590963374        1.2879316065
atom         2.3220100000        1.9652700000        9.2753200000 O         0.0000000000         0.0000000000         0.9753689387       -5.1866631561       -6.2143334177
atom         5.8892300000        5.2762100000       10.6694000000 O         0.0000000000         0.0000000000         3.4488202579        4.3420014035      -12.1973003573
atom         4.4535800000        5.2894800000       12.3380000000 O         0.0000000000         0.0000000000       -17.1158846428        5.4881798214        7.1776186293
atom         1.0570200000        2.1262900000       20.8418000000 O         0.0000000000         0.0000000000         3.6323130385       -5.2508637218       -1.2626111248
atom         2.0203500000        3.5494000000       22.2258000000 O         0.0000000000         0.0000000000        -0.9783437494        5.1876778202        6.2071846479
atom         4.9885700000        0.2384800000       20.8314000000 O         0.0000000000         0.0000000000        -3.4526021878       -4.3419552825       12.1939796384
atom         6.4236400000        0.2250500000       19.1623000000 O         0.0000000000         0.0000000000        17.0931700030       -5.4768570923       -7.1738366994
atom         1.7095000000        3.3881300000       17.6593000000 O         0.0000000000         0.0000000000        -3.6093447327        5.2603416070        1.2851412802
atom         0.7459000000        1.9652700000       16.2753000000 O         0.0000000000         0.0000000000         0.9611175200       -5.1659086629       -6.1869144262
atom         4.3131100000        5.2762100000       17.6694000000 O         0.0000000000         0.0000000000         3.4258058310        4.3022219582      -12.0818131328
atom         2.8774700000        5.2894800000       19.3380000000 O         0.0000000000         0.0000000000       -17.1627667369        5.5009553650        7.2207418541
atom         6.0156100000        2.1263000000       27.8419000000 O         0.0000000000         0.0000000000         3.6044097754       -5.2780290474       -1.2957030112
atom         0.2139800000        3.5494000000        1.2257300000 O         0.0000000000         0.0000000000        -0.9752997571        5.1939272288        6.2060316205
atom         3.4124500000        0.2384800000       27.8314000000 O         0.0000000000         0.0000000000        -3.4481284415       -4.3410559211       12.1867616868
atom         4.8475300000        0.2250500000       26.1623000000 O         0.0000000000         0.0000000000        17.0919939150       -5.4749430668       -7.1715306446
atom         6.6680800000        3.3881300000       24.6594000000 O         0.0000000000         0.0000000000        -3.5990136071        5.2677671035        1.2919210813
atom         5.7044900000        1.9652700000       23.2754000000 O         0.0000000000         0.0000000000         0.9731781867       -5.1741182180       -6.1971071884
atom         2.7370000000        5.2762100000       24.6695000000 O         0.0000000000         0.0000000000         3.4478747755        4.3433389153      -12.2002521074
atom         1.3013600000        5.2894800000       26.3381000000 O         0.0000000000         0.0000000000       -17.1278530672        5.4935529291        7.1815389225
atom         1.7305400000        8.9029400000        3.3407300000 O         0.0000000000         0.0000000000         3.6124117855        5.2575282202       -1.2858330966
atom         2.6941400000        7.4800700000        4.7247300000 O         0.0000000000         0.0000000000        -0.9719559776       -5.1713970734        6.1939478933
atom         5.6616200000       10.7910000000        3.3306300000 O         0.0000000000         0.0000000000        -3.4437238768        4.3312782487       12.1742398093
atom         0.5625700000       10.8043000000        1.6620500000 O         0.0000000000         0.0000000000        17.1330186300        5.4888024562       -7.1956980989
atom         2.3830200000        7.6411000000        0.1582400000 O         0.0000000000         0.0000000000        -3.6142335688       -5.2714337306        1.2865018525
atom         1.6499500000        9.0642000000       26.7744000000 O         0.0000000000         0.0000000000         0.9732934894        5.1985623989       -6.2145179021
atom         4.9861700000        5.7532800000        0.1686900000 O         0.0000000000         0.0000000000         3.4565916626       -4.3382886553      -12.1885373490
atom         3.5511000000        5.7398500000        1.8377700000 O         0.0000000000         0.0000000000       -17.1090125995       -5.4812616570        7.1867044852
atom         0.1544300000        8.9029300000       10.3408000000 O         0.0000000000         0.0000000000         3.6068772540        5.2616329977       -1.2862943076
atom         1.1180300000        7.4800700000       11.7248000000 O         0.0000000000         0.0000000000        -0.9613942466       -5.1665082372        6.1873525766
atom         4.0855100000       10.7910000000       10.3307000000 O         0.0000000000         0.0000000000        -3.4317554524        4.3168884668       12.1259049006
atom         5.5211600000       10.8043000000        8.6620800000 O         0.0000000000         0.0000000000        17.1184443636        5.4854817373       -7.1877422099
atom         0.8069100000        7.6411000000        7.1582600000 O         0.0000000000         0.0000000000        -3.6134495102       -5.2686434043        1.2824201355
atom         6.3782800000        9.0642000000        5.7743000000 O         0.0000000000         0.0000000000         0.9740544875        5.1888308476       -6.2030798703
atom         3.4100600000        5.7532800000        7.1687200000 O         0.0000000000         0.0000000000         3.4556000591       -4.3397414698      -12.1925960055
atom         1.9749900000        5.7398500000        8.8377900000 O         0.0000000000         0.0000000000       -17.1191361800       -5.4842134071        7.1905325362
atom         5.1130200000        8.9029300000       17.3408000000 O         0.0000000000         0.0000000000         3.6077074337        5.2614254528       -1.2897072687
atom         6.0766200000        7.4800700000       18.7248000000 O         0.0000000000         0.0000000000        -0.9729014601       -5.1746716712        6.1986753056
atom         2.5094000000       10.7910000000       17.3307000000 O         0.0000000000         0.0000000000        -3.4489586212        4.3405255285       12.1977385077
atom         3.9450500000       10.8043000000       15.6621000000 O         0.0000000000         0.0000000000        17.1058763649        5.4812385964       -7.1748283030
atom         5.7655000000        7.6411000000       14.1583000000 O         0.0000000000         0.0000000000        -3.6288770168       -5.2553144076        1.2652169667
atom         4.8021700000        9.0642000000       12.7743000000 O         0.0000000000         0.0000000000         0.9761068763        5.1868015194       -6.2053167435
atom         1.8339500000        5.7532800000       14.1687000000 O         0.0000000000         0.0000000000         3.4532940043       -4.3297562526      -12.1751622312
atom         0.3988700000        5.7398500000       15.8378000000 O         0.0000000000         0.0000000000       -17.0956374816       -5.4773413638        7.1698011035
atom         3.5369100000        8.9029300000       24.3408000000 O         0.0000000000         0.0000000000         3.5985985173        5.2651151405       -1.2913676281
atom         4.5005100000        7.4800700000       25.7248000000 O         0.0000000000         0.0000000000        -0.9756226047       -5.1749714583        6.1975683993
atom         0.9332900000       10.7910000000       24.3307000000 O         0.0000000000         0.0000000000        -3.4481976231        4.3407561340       12.2010592266
atom         2.3689300000       10.8043000000       22.6621000000 O         0.0000000000         0.0000000000        17.1185827269        5.4866117041       -7.1793942915
atom         4.1893800000        7.6410900000       21.1583000000 O         0.0000000000         0.0000000000        -3.6063929825       -5.2716873967        1.2962103432
atom         3.2260600000        9.0642000000       19.7743000000 O         0.0000000000         0.0000000000         0.9725324913        5.1404036968       -6.1300009937
atom         0.2578400000        5.7532800000       21.1688000000 O         0.0000000000         0.0000000000         3.4652163076       -4.3425317962      -12.2029732521
atom         5.3574600000        5.7398500000       22.8378000000 O         0.0000000000         0.0000000000       -17.1429116050       -5.4871882178        7.2212491861
atom         5.9593800000        0.6607000000        5.8159800000 H         0.0000000000         0.0000000000         1.4381710768       -1.5590083484        5.7355964410
atom         5.7564400000        2.0374700000        4.7204100000 H         0.0000000000         0.0000000000         3.4952411411       -1.0014042974       -6.6154255293
atom         0.8084500000        2.3083700000        3.1583700000 H         0.0000000000         0.0000000000        -6.7465708659       -0.9076631698        0.5442058725
atom         2.0895500000        1.0657200000        3.1497100000 H         0.0000000000         0.0000000000         3.4957254126       -1.4635146190       -5.1412569371
atom         3.1120700000        4.8541200000        4.6855400000 H         0.0000000000         0.0000000000        -1.4473491749        1.5366165562       -5.7377641325
atom         3.3144700000        3.4768800000        5.7807100000 H         0.0000000000         0.0000000000        -3.5123520677        1.0126347843        6.5979686945
atom         1.7274600000        3.2067300000        7.3428800000 H         0.0000000000         0.0000000000         6.7485771335        0.9124828243       -0.5455895054
atom         0.4464000000        4.4493900000        7.3512400000 H         0.0000000000         0.0000000000        -3.4955178677        1.4602861423        5.1285966962
atom         4.3832700000        0.6607000000       12.8160000000 H         0.0000000000         0.0000000000         1.4360956275       -1.5641277900        5.7398395818
atom         4.1803300000        2.0374700000       11.7204000000 H         0.0000000000         0.0000000000         3.5082934113       -1.0117123624       -6.5891365046
atom         5.7670400000        2.3083700000       10.1584000000 H         0.0000000000         0.0000000000        -6.7489230418       -0.9074556248        0.5429836635
atom         0.5134400000        1.0657200000       10.1497000000 H         0.0000000000         0.0000000000         3.4906982131       -1.4573574527       -5.1343387727
atom         1.5359600000        4.8541200000       11.6856000000 H         0.0000000000         0.0000000000        -1.4455965732        1.5358555582       -5.7393322498
atom         1.7383500000        3.4768800000       12.7807000000 H         0.0000000000         0.0000000000        -3.4934424183        0.9950857073        6.6288006472