begin
comment generated by PY
lattice        13.3100000000         0.0000000000         0.0000000000
lattice         0.0000000000        13.3100000000         0.0000000000
lattice         0.0000000000         0.0000000000        13.3100000000
atom         0.1020200000        3.3099200000        1.0392700000 C         0.0000000000         0.0000000000        -0.5920795702        1.2049136336       -1.0736068732
atom         1.3001300000        2.8355000000        1.8638900000 C         0.0000000000         0.0000000000        -1.3320464348        1.7814042734       -1.3691508566
atom        12.8891000000        2.1442100000        0.2024800000 C         0.0000000000         0.0000000000         2.2285021782        1.6071357121        0.4830492992
atom        12.2634000000        3.8291200000        1.8986800000 C         0.0000000000         0.0000000000         1.6547557437       -1.9179688387       -3.0296717373
atom         0.5788200000        4.4764800000        0.1685600000 C         0.0000000000         0.0000000000        -1.6510891166       -3.5293476916        4.5037942084
atom         6.8203800000        3.2705700000        4.3466700000 C         0.0000000000         0.0000000000         0.6215970717        0.0682131010        0.2968123135
atom         5.6510900000        2.7986200000        5.2195600000 C         0.0000000000         0.0000000000         3.5570895309        2.0546487068       -2.1306332125
atom         7.2558900000        2.0952100000        3.4663600000 C         0.0000000000         0.0000000000        -5.3092299688        2.5284276657        2.0337097292
atom         8.0284200000        3.7166500000        5.1657900000 C         0.0000000000         0.0000000000        -2.8055693317       -1.3093548556        0.2323811423
atom         6.3388700000        4.4639800000        3.5220600000 C         0.0000000000         0.0000000000        -0.2916698113       -2.6848704234        3.2364787318
atom        13.2087000000       10.0027000000        5.7082600000 C         0.0000000000         0.0000000000         0.9382414564       -0.1783733389       -2.2916650192
atom        11.9874000000       10.4083000000        4.8634300000 C         0.0000000000         0.0000000000         1.9605616709       -2.3432975862        1.6099260384
atom         0.3323300000       11.2134000000        6.5458200000 C         0.0000000000         0.0000000000        -2.1444003596       -2.0652796194       -1.6208336776
atom         1.0700200000        9.5487900000        4.8222000000 C         0.0000000000         0.0000000000        -4.2273674194        2.4508519822        2.9046374460
atom        12.8363000000        8.7974400000        6.5800600000 C         0.0000000000         0.0000000000         0.9875449081        2.0034081691       -4.4154492490
atom         6.4583500000        9.9472800000        2.2152500000 C         0.0000000000         0.0000000000        -0.5996664905        0.1127430192        2.2090160152
atom         7.5960500000       10.4304000000        1.3131700000 C         0.0000000000         0.0000000000        -3.6042483515        0.2165154853        2.5772007247
atom         5.9884500000       11.1275000000        3.0815700000 C         0.0000000000         0.0000000000         6.2453498548       -3.6194221921       -1.9689787709
atom         5.2471400000        9.4437800000        1.4280200000 C         0.0000000000         0.0000000000         0.9394867260        1.8845310441       -0.8280350975
atom         7.0016200000        8.7966500000        3.0707200000 C         0.0000000000         0.0000000000         0.5595180764        1.6453009190       -4.3891141031
atom         0.1942700000        3.3103600000        7.6969800000 C         0.0000000000         0.0000000000        -2.5276436071       -1.0409070162        1.2662316308
atom         1.3308600000        2.7523100000        8.5586700000 C         0.0000000000         0.0000000000        -0.8070038777        7.2843197850       -1.8525460640
atom        13.0012000000        2.1771300000        6.8088100000 C         0.0000000000         0.0000000000        -0.8382047991        2.4081438473        6.2369096942
atom        12.3165000000        3.7885800000        8.5441600000 C         0.0000000000         0.0000000000         3.1202766304       -4.0245498996       -3.5920032006
atom         0.7088900000        4.5085700000        6.9017900000 C         0.0000000000         0.0000000000        -4.9235884244       -0.0755463553        2.3405072599
atom         6.7154700000        3.3872300000       10.9449000000 C         0.0000000000         0.0000000000        -0.7618513247       -0.4626407142        1.4098066027
atom         5.5191900000        2.9635700000       11.8078000000 C         0.0000000000         0.0000000000         3.8764781208        2.6092318259       -3.8356148298
atom         7.1146500000        2.1818000000       10.0828000000 C         0.0000000000         0.0000000000        -3.0299254033        2.9984016342        3.3804457331
atom         7.9295600000        3.7731500000       11.8043000000 C         0.0000000000         0.0000000000        -3.7721522016        1.6899692005       -0.5764214581
atom         6.2942000000        4.5946800000       10.0998000000 C         0.0000000000         0.0000000000         4.1420664523       -0.5923562968        3.0928345783
atom        13.1147000000        9.9844800000       12.2936000000 C         0.0000000000         0.0000000000         1.6800992860       -0.0331149469       -0.5580191408
atom        12.0018000000       10.4941000000       11.3717000000 C         0.0000000000         0.0000000000         8.5319646141        0.4437771859        0.1876667397
atom         0.2288200000       11.1362000000       13.2059000000 C         0.0000000000         0.0000000000         0.2594311651       -3.6082839474       -5.9863799006
atom         1.0274200000        9.5417900000       11.4743000000 C         0.0000000000         0.0000000000        -1.0155634739        6.1877676664        3.9756845984
atom        12.6349000000        8.7730200000       13.0986000000 C         0.0000000000         0.0000000000         8.3571656601       -0.7407970443       -5.6456141827
atom         6.6169500000        9.9729200000        8.9472000000 C         0.0000000000         0.0000000000        -1.5516981546       -2.2771368740        1.3168034126
atom         7.7878400000       10.4625000000        8.0948300000 C         0.0000000000         0.0000000000        -1.3029670838       -3.6759435953        3.6557656158
atom         6.1144100000       11.1466000000        9.7918500000 C         0.0000000000         0.0000000000         1.2832272547       -1.7575596667       -1.9380315155
atom         5.4299100000        9.4887200000        8.1062200000 C         0.0000000000         0.0000000000         3.2360636420        0.9411240249       -0.2200206886
atom         7.1130800000        8.8201800000        9.8229300000 C         0.0000000000         0.0000000000        -5.4535889994       -1.2074041728        1.4426909442
atom         2.0333500000        2.3400300000        1.2118200000 H         0.0000000000         0.0000000000        -0.4949946631       -1.6290893538        2.0246930549
atom        12.3935000000        1.4011800000        0.8388500000 H         0.0000000000         0.0000000000        -2.1869931918       -0.2210122921       -0.6557728038
atom         1.7798500000        3.6822500000        2.3697900000 H         0.0000000000         0.0000000000         0.3804298606        1.5881338205       -1.7004386893
atom         0.4979300000        1.7697500000        6.1945700000 H         0.0000000000         0.0000000000         2.4070600015       -2.9523727803       -0.9102228906
atom        11.5214000000        4.3476700000        1.2759300000 H         0.0000000000         0.0000000000         0.3593986408        1.5257319776        1.7818654843
atom        11.7735000000        3.0166900000        2.4415400000 H         0.0000000000         0.0000000000        -1.4098527238       -3.9073331341       -0.1811175441
atom         1.0171700000        5.2507700000        0.8037300000 H         0.0000000000         0.0000000000         4.4602097727        2.0964574803        0.1858449564
atom        13.1858000000        5.0437400000        6.4331400000 H         0.0000000000         0.0000000000        -2.6797509817        1.6249384551       -0.5066863609
atom         4.7897200000        2.5696400000        4.5767500000 H         0.0000000000         0.0000000000        -1.7970162644       -1.6697450999        2.4721599285
atom         7.7115600000        1.3198100000        4.0866500000 H         0.0000000000         0.0000000000         3.9521628394       -2.1389119492       -0.8578293255
atom         5.3758700000        3.5454000000        5.9733900000 H         0.0000000000         0.0000000000         0.7032083511        2.4620824691       -1.2291041485
atom         6.3878600000        1.6877800000        2.9321300000 H         0.0000000000         0.0000000000         0.1191769121       -3.0838179040       -0.4141905028
atom         8.7978600000        4.1636500000        4.5193300000 H         0.0000000000         0.0000000000        -1.9692554975        1.4121126575        1.4055634619
atom         8.4736500000        2.8760200000        5.7090600000 H         0.0000000000         0.0000000000        -0.2400141837       -3.0309861885       -0.5213989906
atom         5.8738300000        5.2108200000        4.1787000000 H         0.0000000000         0.0000000000        -2.5969405538        1.0183999213       -1.9975738504
atom         7.1655600000        4.9165000000        2.9659000000 H         0.0000000000         0.0000000000         2.4608371995        2.3898337721        0.2596387101
atom        11.2174000000       10.8785000000        5.4904000000 H         0.0000000000         0.0000000000         0.6581480403        1.0033183229       -1.3676519210
atom         0.7481900000       12.0033000000        5.9040300000 H         0.0000000000         0.0000000000         0.1393087705       -0.9140048205        1.7181722507
atom        11.5589000000        9.5316400000        4.3602700000 H         0.0000000000         0.0000000000        -0.1102755406       -0.8033141900        2.1391886758
atom        12.6766000000       11.5357000000        0.4372600000 H         0.0000000000         0.0000000000        -2.5768317560        3.5355740396        0.2103583190
atom         1.8496400000        9.0613900000        5.4228700000 H         0.0000000000         0.0000000000        -0.3600904572       -1.4546824291       -1.4289237970
atom         1.4970100000       10.3996000000        4.2840100000 H         0.0000000000         0.0000000000         2.0699147896        2.3363102402        0.0978689658
atom        12.4995000000        7.9850500000        5.9281900000 H         0.0000000000         0.0000000000        -2.3677648277       -2.1066041215        0.7538493145
atom         0.1851400000        8.2583100000        0.2397000000 H         0.0000000000         0.0000000000         0.8195718763       -0.7326797314       -0.9177406292
atom         8.4860900000       10.6514000000        1.9235900000 H         0.0000000000         0.0000000000         0.3210028283        1.7046126485       -3.7917997885
atom         5.4926100000       11.8779000000        2.4603500000 H         0.0000000000         0.0000000000        -4.1847515267        1.4296847951        0.6234649761
atom         7.8205400000        9.6793600000        0.5483300000 H         0.0000000000         0.0000000000         1.7785908865       -2.2253198226        1.0264480526
atom         6.8510900000       11.5740000000        3.5912800000 H         0.0000000000         0.0000000000        -0.1705327525        3.2147326351        0.6979274856
atom         4.5582400000        8.9128800000        2.0991600000 H         0.0000000000         0.0000000000         0.6438274399       -2.0572084276       -1.6758100240
atom         4.7078000000       10.2780000000        0.9666800000 H         0.0000000000         0.0000000000        -0.3698220085        3.5608945213        0.9362351887
atom         7.4857900000        8.0453000000        2.4331700000 H         0.0000000000         0.0000000000         1.4180392184       -1.6743341490        0.7625892622
atom         6.1980900000        8.3358200000        3.6523500000 H         0.0000000000         0.0000000000        -2.1498195884       -2.7256875934       -0.0296558647
atom         2.0400300000        2.1716400000        7.9589900000 H         0.0000000000         0.0000000000         0.7955197248       -1.9719766422       -1.5102352893
atom        12.5728000000        1.3985900000        7.4524600000 H         0.0000000000         0.0000000000        -2.2529924802       -2.8595540746       -2.7608088080
atom         1.8760200000        3.5584200000        9.0601500000 H         0.0000000000         0.0000000000         0.1896268863        3.0142672912       -0.8629948883
atom         0.4029000000        1.6791100000       12.9608000000 H         0.0000000000         0.0000000000         0.9019672144       -3.6217513075       -0.5915952987
atom        11.5723000000        4.2844400000        7.9067500000 H         0.0000000000         0.0000000000         0.8026454341        1.5709537122        1.9960287937
atom        11.8432000000        2.9509900000        9.0774900000 H         0.0000000000         0.0000000000         0.8639173102        0.5282479733       -1.9210589521
atom         1.2441800000        5.1922100000        7.5668700000 H         0.0000000000         0.0000000000         3.7577854802        1.3847167265       -0.0608798468
atom        13.0529000000        4.8958200000       12.9104000000 H         0.0000000000         0.0000000000        -1.8053180617        2.5768548165       -1.3419624705
atom         4.7451400000        2.4878300000       11.1932000000 H         0.0000000000         0.0000000000         0.0982609951       -1.2303955392        0.9778133568
atom         7.4958600000        1.3916700000       10.7404000000 H         0.0000000000         0.0000000000         1.6499822103       -2.6220996117       -1.8445671144
atom         5.0952500000        3.8314000000       12.3222000000 H         0.0000000000         0.0000000000        -1.7794210663        2.4920842420       -0.7279984402
atom         6.2410000000        1.8282200000        9.5160700000 H         0.0000000000         0.0000000000        -0.1855682299       -2.2324455320        0.3795535597
atom         8.6966700000        4.2570100000       11.1850000000 H         0.0000000000         0.0000000000         0.3246925160        1.2139764290        1.6331941313
atom         8.3541400000        2.8849600000       12.2920000000 H         0.0000000000         0.0000000000         0.1605475353        0.2998101847       -1.6896002317
atom         5.8655400000        5.3751400000       10.7420000000 H         0.0000000000         0.0000000000        -0.6971664875        0.1098373902       -0.7535725879
atom         7.1595400000        4.9871500000        9.5540900000 H         0.0000000000         0.0000000000         1.8756757937        3.4324472689       -0.2672948120
atom        11.1138000000       10.8060000000       11.9291000000 H         0.0000000000         0.0000000000        -0.0563830399        2.7435364575        1.3276649307
atom         0.6982000000       11.9235000000       12.6056000000 H         0.0000000000         0.0000000000         2.7927476670        0.8346765353        2.9546788351
atom        11.7177000000        9.7350300000       10.6380000000 H         0.0000000000         0.0000000000        -0.4447457290       -2.1261133451       -0.3750106318
atom        12.7692000000       11.5870000000        7.1019000000 H         0.0000000000         0.0000000000         0.7681237937        3.5625779413       -0.0618253292
atom         1.8003800000        9.1272800000       12.1384000000 H         0.0000000000         0.0000000000        -1.5440189921       -1.2115781320       -2.0076051888
atom         1.4583300000       10.3845000000       10.9127000000 H         0.0000000000         0.0000000000        -2.1967708642        0.1098143296        1.7353523590
atom        12.1093000000        8.0848600000       12.4348000000 H         0.0000000000         0.0000000000        -3.9112534272       -3.6272627785        0.5963457716
atom         0.3997200000        8.4738000000        7.1616700000 H         0.0000000000         0.0000000000         0.7773480129       -2.5146835791       -0.2517750632
atom         8.4976400000       11.0363000000        8.7012600000 H         0.0000000000         0.0000000000        -0.1190616094        2.5549472959       -0.9458744978
atom         5.6942000000       11.9140000000        9.1299600000 H         0.0000000000         0.0000000000        -2.0872102006        2.3125348152        1.8665668772
atom         8.3187200000        9.6241600000        7.6329400000 H         0.0000000000         0.0000000000         0.9815952867       -3.6758513531        0.9380108509
atom         6.9357300000       11.5628000000       10.3875000000 H         0.0000000000         0.0000000000         1.6048757784        2.5156060010        0.9387026674
atom         4.7246000000        8.9452300000        8.7465000000 H         0.0000000000         0.0000000000        -1.0212594293       -2.0568855799       -2.2748538797
atom         4.9178800000       10.3375000000        7.6286900000 H         0.0000000000         0.0000000000         0.7743501417       -0.6503996961        2.5486517663
atom         7.4722100000        7.9951200000        9.1894600000 H         0.0000000000         0.0000000000         1.9483165199       -0.2331882615        1.8709253208
atom         6.3197400000        8.4595800000       10.4948000000 H         0.0000000000         0.0000000000         0.5193004807       -0.2149473680       -2.0577849413
atom         1.9002000000        1.3745800000        3.6337600000 N         0.0000000000         0.0000000000        -1.0780575590        0.8556385734       -3.7572320271
atom        11.3922000000        1.7594000000        5.1136600000 N         0.0000000000         0.0000000000         0.8588901107       -2.0912227359        2.3123042097
atom        11.8721000000        5.3674300000        3.6475600000 N         0.0000000000         0.0000000000         4.3338379696        3.3618589314        1.5692702922
atom         2.2019500000        5.0899400000        5.1514400000 N         0.0000000000         0.0000000000        -1.4849378681        3.0530781935       -2.1721421989
atom         4.9907600000        1.4118400000        0.2082700000 N         0.0000000000         0.0000000000        -1.3120990608       -3.2557804105        2.4669251841
atom         8.8974000000        1.5808800000        1.8063800000 N         0.0000000000         0.0000000000        -1.2960027983       -6.1553445359        3.2544198382
atom         8.5461600000        5.2155100000        0.2884500000 N         0.0000000000         0.0000000000         2.9048219303        0.9355433723       -2.1773308222
atom         4.7526100000        4.9491200000        1.8144500000 N         0.0000000000         0.0000000000         0.4895293132       -0.6310057753        1.2048675125
atom        11.3638000000       11.8454000000        3.0637900000 N         0.0000000000         0.0000000000        -0.0940178542       -1.2507810636        1.9933768307
atom         1.8808200000       11.5944000000        1.5495200000 N         0.0000000000         0.0000000000        -1.0079996142        1.3263735400       -1.7484276897
atom         1.5097500000        7.9744000000        3.0945200000 N         0.0000000000         0.0000000000        -0.3282669010       -4.1910470563       -2.6585583381
atom        11.1566000000        8.1302900000        1.5331700000 N         0.0000000000         0.0000000000         2.7243962027        0.0818880060        0.3822055228
atom         8.2081800000       11.9322000000        6.2988500000 N         0.0000000000         0.0000000000        -4.3272887739        3.2201288033       -4.7613113481
atom         4.3711000000       11.5890000000        4.7849000000 N         0.0000000000         0.0000000000        -0.0395949609        8.4029869690       -3.5934098940
atom         4.8762100000        8.0043400000        6.3420100000 N         0.0000000000         0.0000000000         0.7226483931       -2.6681976472        2.3167087744
atom         8.5763100000        8.3975700000        4.8146400000 N         0.0000000000         0.0000000000        -1.1044849470       -2.8317661142       -0.1345352371
atom         1.7010200000        1.2690900000       10.3539000000 N         0.0000000000         0.0000000000        -5.4383459771       -1.5055770586       -0.4616260501
atom        11.2304000000        1.7335700000       11.8410000000 N         0.0000000000         0.0000000000         1.0074692216       -8.2923885808        2.1364675311
atom        11.8465000000        5.3509600000       10.2557000000 N         0.0000000000         0.0000000000         3.7110417494        2.4488226539        0.4637706811
atom         2.2647500000        4.9441600000       11.8570000000 N         0.0000000000         0.0000000000         1.2549550228        6.6042872846        0.0154505672
atom         5.1706000000        1.1019800000        6.8339300000 N         0.0000000000         0.0000000000         2.4567093614        0.7375224465        5.6097319700
atom         8.7269700000        1.5115600000        8.4454700000 N         0.0000000000         0.0000000000        -0.4990071984       -3.2937611331        0.2780640879
atom         8.6099000000        5.2281300000        6.8975500000 N         0.0000000000         0.0000000000        -2.4478079898       -0.9729475812       -3.6701553978
atom         4.6495100000        5.2034000000        8.4718900000 N         0.0000000000         0.0000000000         2.9976406361        8.4380851231        1.8803801455
atom        11.6410000000       12.2489000000        9.8102600000 N         0.0000000000         0.0000000000         2.1079877543       -5.0486457763        0.6172847492
atom         2.0035600000       11.8118000000        8.1746500000 N         0.0000000000         0.0000000000        -0.7704990302        4.1315969635        0.2123876472
atom         1.6584800000        8.0077400000        9.7870700000 N         0.0000000000         0.0000000000        -1.1315349699        0.7163759240        3.0147285022
atom        11.1540000000        8.0545000000        8.1099500000 N         0.0000000000         0.0000000000         0.0386955996       -7.8367582731        0.5930942343
atom         8.0586100000       12.1608000000       13.0483000000 N         0.0000000000         0.0000000000         1.8555669958       -3.2655580829       -5.6184949782
atom         4.4932900000       11.6407000000       11.4768000000 N         0.0000000000         0.0000000000         1.2048675125        5.5095338889        1.0071694344
atom         4.6011600000        7.9559000000       13.0034000000 N         0.0000000000         0.0000000000         1.1788782749       -1.3361050913        2.3073692524
atom         8.8160800000        8.3866300000       11.4394000000 N         0.0000000000         0.0000000000        -7.6875104064      -10.3628337629        4.8446291080
atom         0.8022200000        1.9253700000        2.8686600000 O         0.0000000000         0.0000000000        -0.0394565976       -6.4189035392        1.6762020534
atom        11.9943000000        2.7511600000        5.9474900000 O         0.0000000000         0.0000000000        -0.0924266764       -2.0350703015       -3.3273372910
atom         1.5457900000        0.5722500000        4.4827100000 O         0.0000000000         0.0000000000         0.1804718487        3.6838994844       -2.8990567933
atom        10.6451000000        2.2462600000        4.2798100000 O         0.0000000000         0.0000000000        -2.1397882500       -3.7695002386       -0.0433999514
atom         3.0047900000        1.7843800000        3.3303600000 O         0.0000000000         0.0000000000         5.0459015711       -5.4834524090        5.4167382437
atom        11.6882000000        0.5963500000        5.3327600000 O         0.0000000000         0.0000000000        -3.2527825393       -1.1989640122       -4.5528439940
atom        12.8619000000        4.7255800000        2.8535100000 O         0.0000000000         0.0000000000         0.8236535933        1.1729286535       -0.4460140591
atom         1.5721500000        4.0086100000        5.8628400000 O         0.0000000000         0.0000000000         5.5260221807        0.3450319194       -1.3187404986
atom        12.3640000000        6.1144800000        4.4792800000 O         0.0000000000         0.0000000000        -2.9982863314        0.3779393214        2.1680835425
atom        10.7157000000        5.1019900000        3.3977800000 O         0.0000000000         0.0000000000       -11.1565086439        3.4346841420        4.1145090974
atom         2.8777300000        4.7006200000        4.2092500000 O         0.0000000000         0.0000000000        -0.3605055471        1.9137718190        5.0705302363
atom         1.9768600000        6.2175400000        5.5554800000 O         0.0000000000         0.0000000000         2.5288196950       -1.6490828489       -5.7263491613
atom         6.1082800000        1.5891900000        5.8636100000 O         0.0000000000         0.0000000000        -2.3968211182       -2.7296078865       -2.5582218937
atom         8.1912500000        2.6200200000        2.5045400000 O         0.0000000000         0.0000000000         1.4657976133       -1.6466153703       -2.6986836917
atom         5.4000400000        0.6562000000        1.0763700000 O         0.0000000000         0.0000000000        -3.3241088143        3.2840295819       -1.0020961139
atom         9.5602200000        2.0229100000        0.8840600000 O         0.0000000000         0.0000000000         2.4186594571       -0.3118939119        1.5480084670
atom         4.4078200000        1.9247300000        7.3145100000 O         0.0000000000         0.0000000000        -6.2401612315       -6.4251990688       -0.3730504852
atom         8.7602000000        0.4348800000        2.2059500000 O         0.0000000000         0.0000000000         0.8380433753        5.4899554836       -4.6881632898
atom         7.5305000000        4.6760000000        6.1240000000 O         0.0000000000         0.0000000000        -0.1033343156        4.3599655704        1.5206586570
atom         5.3874600000        3.9251600000        2.5753700000 O         0.0000000000         0.0000000000        -1.6589297029        3.3854268115       -0.0585046103
atom         8.1910200000        5.9611600000        1.1893000000 O         0.0000000000         0.0000000000         1.0905563760       -3.8048981798       -4.6005101468
atom         9.7153300000        4.8058400000        6.6176100000 O         0.0000000000         0.0000000000         6.5084476471        6.5426233792        6.7855893131
atom         4.0129200000        4.4895700000        0.9572400000 O         0.0000000000         0.0000000000        -1.5829451972        4.1176914530        0.8306639999
atom         5.0186400000        6.1029800000        2.1027900000 O         0.0000000000         0.0000000000        -2.9065284109        2.5970097355       -4.9655125007
atom        12.4565000000       11.3340000000        3.8500600000 O         0.0000000000         0.0000000000         2.1762239159        4.2071433188        2.2741851239
atom         1.1552100000       10.5771000000        0.8538000000 O         0.0000000000         0.0000000000         1.7743938668        4.9490011483       -0.5894276072
atom        11.7146000000       12.6675000000        2.2312300000 O         0.0000000000         0.0000000000        -0.6385926956       -4.0592790849        3.4417867908
atom         2.6053900000       11.1207000000        2.4107500000 O         0.0000000000         0.0000000000         2.9801838012        3.7816300869        0.1973982910
atom        10.2654000000       11.3882000000        3.3249800000 O         0.0000000000         0.0000000000        -3.9451754934        5.7873212502       -4.5834914623
atom         1.6980600000       12.7528000000        1.2114600000 O         0.0000000000         0.0000000000         2.7956763566       -1.1442874529        5.9942666081
atom         0.5061500000        8.6308200000        3.8498700000 O         0.0000000000         0.0000000000        -3.2032946033        3.3351778773        5.4503374621
atom        11.7847000000        9.2401100000        0.8481900000 O         0.0000000000         0.0000000000        -7.8787054100       -3.7565632712        0.5543986348
atom         1.0433000000        7.2332800000        2.2416900000 O         0.0000000000         0.0000000000         1.7529475571        1.3820878240        0.0127986041
atom         2.6612300000        8.2168100000        3.3912300000 O         0.0000000000         0.0000000000        11.0787715365       -2.4282757057       -4.2721279431
atom        10.4695000000        8.5025000000        2.4718100000 O         0.0000000000         0.0000000000        -0.3250614848       -3.0846019626       -3.1762445804
atom        11.3959000000        7.0099900000        1.1140000000 O         0.0000000000         0.0000000000        -2.6577973400        3.9884140209        4.8830941021
atom         7.1153000000       11.6409000000        0.6823200000 O         0.0000000000         0.0000000000         2.7245806871        0.5042650034        1.9801170156
atom         5.0927800000       10.5813000000        4.0740500000 O         0.0000000000         0.0000000000         1.2716277990       -2.0109489683        0.3086193140