begin
comment generated by PY
lattice        13.3100000000         0.0000000000         0.0000000000
lattice         0.0000000000        13.3100000000         0.0000000000
lattice         0.0000000000         0.0000000000        13.3100000000
atom         0.0275100000        3.2417500000        1.1534900000 C         0.0000000000         0.0000000000        -3.7500760615        2.3133881673       -3.9980363754
atom         1.2763200000        2.8862500000        1.9626800000 C         0.0000000000         0.0000000000        -4.9819660546        5.4360618542       -3.2827402727
atom        12.9494000000        2.0568500000        0.2461800000 C         0.0000000000         0.0000000000         6.7458237478       10.2025782295        2.6186757667
atom        12.1589000000        3.5462700000        2.0814500000 C         0.0000000000         0.0000000000        14.6827945925       -4.5675715812       -7.4827833387
atom         0.3188000000        4.4862300000        0.2940100000 C         0.0000000000         0.0000000000        -6.2873892869      -10.7469491522        6.7221372212
atom         6.7245500000        3.2690000000        4.3597100000 C         0.0000000000         0.0000000000         0.7188335263       -2.7167807985        5.2385226061
atom         5.5527600000        2.7591100000        5.2211300000 C         0.0000000000         0.0000000000        19.6898838274       -3.0053640857      -10.1942487726
atom         7.1474600000        2.1089300000        3.4371900000 C         0.0000000000         0.0000000000       -11.3097240095        3.9918399135       11.9129686016
atom         7.9136400000        3.6493800000        5.2439900000 C         0.0000000000         0.0000000000        -3.2440072804       -3.2533041267       -7.9505923452
atom         6.2684800000        4.4923400000        3.5509400000 C         0.0000000000         0.0000000000         2.4199575532       -9.9313267792        5.6181241806
atom        13.2673000000       10.0521000000        5.5166100000 C         0.0000000000         0.0000000000         1.9324365413       -2.7751045745        3.7653349542
atom        12.0123000000       10.3597000000        4.7079000000 C         0.0000000000         0.0000000000         3.8780864084       -5.9806013801        4.9509458988
atom         0.3104100000       11.2573000000        6.4115000000 C         0.0000000000         0.0000000000        -8.7036662695       -9.6132597196       -3.7176077777
atom         1.1390400000        9.7729700000        4.5871700000 C         0.0000000000         0.0000000000       -14.2530168291        6.4988925202        5.3628323829
atom        12.9999000000        8.8171600000        6.3970200000 C         0.0000000000         0.0000000000         7.8543391268       13.1954411250       -6.7275197865
atom         6.6493000000       10.0361000000        2.3005300000 C         0.0000000000         0.0000000000        -0.5107923502        5.3390232721        0.3431144645
atom         7.7938100000       10.5359000000        1.4126900000 C         0.0000000000         0.0000000000        -7.1255357547       -0.2855502005        6.4562353649
atom         6.2281600000       11.1872000000        3.2330900000 C         0.0000000000         0.0000000000         5.0893519753      -13.3173305544      -11.9963320411
atom         5.4333700000        9.6351700000        1.4575500000 C         0.0000000000         0.0000000000         4.3689127478        3.5169919199        6.0732517214
atom         7.1417300000        8.8347700000        3.1201900000 C         0.0000000000         0.0000000000        -2.7486521621        6.5936035422       -6.5227167313
atom         0.0363800000        3.2972500000        7.7766800000 C         0.0000000000         0.0000000000        -2.1370040342        0.5402617738       -1.0276146256
atom         1.2278400000        2.9676300000        8.6713000000 C         0.0000000000         0.0000000000        -5.1886113043        4.6564567017       -0.6874977446
atom        13.0185000000        2.0903800000        6.8752200000 C         0.0000000000         0.0000000000         6.1491082872       12.7084792057        4.3852550940
atom        12.1146000000        3.6163300000        8.6333400000 C         0.0000000000         0.0000000000        14.3090809071       -4.7129967951       -4.9394433626
atom         0.3944100000        4.5117100000        6.9037100000 C         0.0000000000         0.0000000000        -8.0524720575       -9.6721892523        5.1238356143
atom         6.5760500000        3.4261300000       11.1191000000 C         0.0000000000         0.0000000000        -4.3605210352       -4.6923267636       -3.3103206437
atom         5.4243300000        3.1082000000       12.0853000000 C         0.0000000000         0.0000000000        14.3597252179        4.8369651639      -10.0264724565
atom         6.9058400000        2.1826700000       10.2708000000 C         0.0000000000         0.0000000000        -4.2994948851       13.8542123426        7.3676030440
atom         7.8306400000        3.8533200000       11.8906000000 C         0.0000000000         0.0000000000        -4.9284968522       -4.4328188016       -3.3478274945
atom         6.0987600000        4.5527800000       10.1980000000 C         0.0000000000         0.0000000000         7.1598286728       -0.4127819043        3.8504691598
atom         0.0077600000       10.0093000000       12.1576000000 C         0.0000000000         0.0000000000         2.8004696369       -1.6426994772        2.5638772649
atom        12.0927000000       10.4184000000       11.3284000000 C         0.0000000000         0.0000000000        10.7886428646       -1.4990555920        1.9248969676
atom         0.4614500000       11.1798000000       13.0436000000 C         0.0000000000         0.0000000000         0.4656738972       -7.1786964017       -5.6487047852
atom         1.1936000000        9.6409300000       11.2525000000 C         0.0000000000         0.0000000000       -10.4499997229        5.8168783733        8.9323020065
atom        12.9387000000        8.7965400000       13.0240000000 C         0.0000000000         0.0000000000         4.9374669454        8.2500961768       -8.3821869664
atom         6.6646000000        9.9010000000        8.8545700000 C         0.0000000000         0.0000000000         0.1659931266        4.4395279137        0.4351135711
atom         7.8598900000       10.1560000000        7.9272700000 C         0.0000000000         0.0000000000       -13.9008856937       -7.4367800305        6.9302681286
atom         6.4003900000       11.1592000000        9.6979900000 C         0.0000000000         0.0000000000         3.5447610461      -14.4167484397       -9.3186412685
atom         5.4208900000        9.5975900000        8.0152500000 C         0.0000000000         0.0000000000         9.6699360398        6.4806506332        2.9233187240
atom         6.9842800000        8.7148000000        9.7809500000 C         0.0000000000         0.0000000000        -6.4384896492       10.8017858043       -5.8415747271
atom         2.0333200000        2.4273000000        1.3241500000 H         0.0000000000         0.0000000000       -79.5080949049       48.0191776013       72.2055960368
atom        12.4659000000        1.2673200000        0.8215400000 H         0.0000000000         0.0000000000        50.4614347889       82.2740792608      -65.6854993365
atom         1.6779900000        3.8053900000        2.4036300000 H         0.0000000000         0.0000000000       -37.8308839996     -101.9634996232      -46.1957531722
atom         0.6473100000        1.7213800000        6.4525700000 H         0.0000000000         0.0000000000      -104.9972001558       32.7428283712       42.4925160856
atom        11.3424000000        4.0107500000        1.5304800000 H         0.0000000000         0.0000000000        85.5823638791      -49.2005402087       63.3688500736
atom        11.8438000000        2.5903200000        2.5174500000 H         0.0000000000         0.0000000000        26.1861711745      106.9438398852      -43.0676778589
atom         0.7914200000        5.2662000000        0.8919200000 H         0.0000000000         0.0000000000       -48.8984159219      -82.4789440306      -68.5998814366
atom        12.7834000000        4.8880300000        6.4439300000 H         0.0000000000         0.0000000000       103.2817185880      -35.1474641169       46.7672933841
atom         4.6827200000        2.6553200000        4.5675300000 H         0.0000000000         0.0000000000        87.5769487581        6.3618998975       76.0375268724
atom         7.6620700000        1.3385200000        4.0178900000 H         0.0000000000         0.0000000000       -53.2672298652       82.9379691264      -68.5325872706
atom         5.3439000000        3.4122300000        6.0685500000 H         0.0000000000         0.0000000000        19.3888119784      -71.1699445410      -92.0169640816
atom         6.2214500000        1.6917600000        3.0110700000 H         0.0000000000         0.0000000000       105.6972768567       38.9720705521       39.4950291464
atom         8.6835900000        4.1389800000        4.6428300000 H         0.0000000000         0.0000000000       -80.8343006132      -50.6348103809       69.2991264693
atom         8.3397700000        2.7437000000        5.6947500000 H         0.0000000000         0.0000000000       -42.9825277528       99.9922550835      -47.5563332777
atom         5.8303200000        5.2397000000        4.2170400000 H         0.0000000000         0.0000000000        46.1084313039      -76.7678350072      -76.5616311192
atom         7.1257600000        4.9070300000        3.0102700000 H         0.0000000000         0.0000000000       -95.3729683791      -38.7671358347       57.1655147425
atom        11.2370000000       10.7782000000        5.3514300000 H         0.0000000000         0.0000000000        81.4773721392      -43.1534081548      -73.0205609822
atom         0.8071000000       12.0402000000        5.8398200000 H         0.0000000000         0.0000000000       -51.5945437783      -82.0151183420       65.4573452720
atom        11.6443000000        9.4290900000        4.2613300000 H         0.0000000000         0.0000000000        34.6495134010      103.2318005903       47.1048439972
atom        12.9657000000       11.4800000000        0.4147000000 H         0.0000000000         0.0000000000        89.6901290850      -27.5908665776      -72.9210516466
atom         1.9614600000        9.2998000000        5.1219600000 H         0.0000000000         0.0000000000       -86.4038868760       50.4898741138      -61.9089039678
atom         1.4433200000       10.7441000000        4.1768300000 H         0.0000000000         0.0000000000       -23.9939555521     -108.3818583384       40.2601165687
atom        12.5127000000        8.0266700000        5.8275400000 H         0.0000000000         0.0000000000        50.7335196291       83.3281709742       65.5118787239
atom         0.5414400000        8.3943600000        0.1720400000 H         0.0000000000         0.0000000000      -102.7799952845       38.7335850279      -45.8247191541
atom         8.6250400000       10.8703000000        2.0369400000 H         0.0000000000         0.0000000000       -86.2595205533      -33.9946467433      -70.8482842231
atom         5.7733900000       11.9869000000        2.6443600000 H         0.0000000000         0.0000000000        46.1305611366      -84.5350131302       69.8146169883
atom         8.1307100000        9.7454700000        0.7341300000 H         0.0000000000         0.0000000000       -32.7576712492       87.0568565452       72.6280800167
atom         7.1278500000       11.5418000000        3.7542200000 H         0.0000000000         0.0000000000      -101.6382369298      -31.5987665405      -52.2627507360
atom         4.6794700000        9.1676600000        2.0972800000 H         0.0000000000         0.0000000000        79.1236563017       48.1743187983      -73.8498650064
atom         5.0001700000       10.5288000000        0.9878300000 H         0.0000000000         0.0000000000        43.8830424719      -99.9044625467       50.6280710057
atom         7.5147100000        8.0547400000        2.4504600000 H         0.0000000000         0.0000000000       -38.9580730945       80.8470328331       76.6864606483
atom         6.3248000000        8.4479800000        3.7411600000 H         0.0000000000         0.0000000000        90.8072661254       36.8162888200      -66.5060641666
atom         2.0275100000        2.5055600000        8.0992500000 H         0.0000000000         0.0000000000       -84.1525009069       48.0249867178       65.3819863229
atom        12.5080000000        1.3086400000        7.4396200000 H         0.0000000000         0.0000000000        53.8000231023       82.0324370237      -65.2133001093
atom         1.6024200000        3.8921600000        9.1278500000 H         0.0000000000         0.0000000000       -36.0796113548     -103.1393609866      -48.9098871903
atom         0.5512700000        1.6878000000       13.0764000000 H         0.0000000000         0.0000000000      -101.6233391181       32.9362789690       48.8466100251
atom        11.3462000000        4.1151200000        8.0443000000 H         0.0000000000         0.0000000000        80.4502007282      -52.2549585064       67.3659112452
atom        11.7385000000        2.6661400000        9.0356900000 H         0.0000000000         0.0000000000        33.9743477798      106.2618804502      -40.8411308260
atom         0.8622200000        5.2980900000        7.4950600000 H         0.0000000000         0.0000000000       -47.9891695664      -83.5166360416      -67.2520870777
atom        12.6721000000        4.8459400000       13.1987000000 H         0.0000000000         0.0000000000       107.7116217850      -32.9635810070       41.0298844160
atom         4.6297200000        2.5892600000       11.5483000000 H         0.0000000000         0.0000000000        82.4427320846       54.3679918705       64.5787739628
atom         7.3848800000        1.4119900000       10.8736000000 H         0.0000000000         0.0000000000       -49.6440774887       81.5622433283      -68.9814153022
atom         5.0716000000        4.0695000000       12.4841000000 H         0.0000000000         0.0000000000        30.6999249441     -108.2717614288      -39.9424805416
atom         5.9633200000        1.8120800000        9.8417100000 H         0.0000000000         0.0000000000       105.6191947648       33.9886123058       42.1844163652
atom         8.5181800000        4.3900500000       11.2332000000 H         0.0000000000         0.0000000000       -71.2441619151      -55.8262159703       75.0538349753
atom         8.3298200000        2.9646300000       12.2921000000 H         0.0000000000         0.0000000000       -50.1318811355       98.1920949516      -43.1630063614
atom         5.7187300000        5.3891000000       10.7884000000 H         0.0000000000         0.0000000000        39.4059118136      -87.5448223380      -66.6738979770
atom         6.9289100000        4.8909100000        9.5695000000 H         0.0000000000         0.0000000000       -91.9566688772      -31.5277309481       66.7749221172
atom        11.3480000000       10.9099000000       11.9564000000 H         0.0000000000         0.0000000000        77.7281314646      -51.4863230591      -72.2614929535
atom         0.7744900000       12.0194000000       12.4165000000 H         0.0000000000         0.0000000000       -33.4674923938      -87.4651985448       71.6157749203
atom        11.6593000000        9.5287100000       10.8605000000 H         0.0000000000         0.0000000000        42.3695701599       98.2470993734       50.1778949877
atom        12.6827000000       11.6286000000        6.8403700000 H         0.0000000000         0.0000000000       105.2899305976      -33.1036420258      -42.4953061990
atom         1.9789800000        9.1703300000       11.8483000000 H         0.0000000000         0.0000000000       -83.0815340713       47.9539811256      -69.6923828426
atom         1.5717500000       10.5657000000       10.7948000000 H         0.0000000000         0.0000000000       -35.4263847874     -103.4709690278       46.8543789971
atom        12.4612000000        8.0281900000       12.4137000000 H         0.0000000000         0.0000000000        49.7475242211       80.8947147813       69.5800127050
atom         0.6609100000        8.4755600000        6.7796200000 H         0.0000000000         0.0000000000      -109.1541209698       29.8454096474      -37.8263227547
atom         8.6651900000       10.6592000000        8.4550800000 H         0.0000000000         0.0000000000       -83.5634674974      -53.2096153235      -61.6142234368
atom         5.8994700000       11.9148000000        9.0987100000 H         0.0000000000         0.0000000000        52.5972744724      -78.1439747202       68.6361765189
atom         8.1805000000        9.1716600000        7.5629500000 H         0.0000000000         0.0000000000       -26.2441157899      110.3469946735       35.2510679631
atom         7.3718400000       11.5226000000       10.0586000000 H         0.0000000000         0.0000000000      -109.2030448149      -32.3167482509      -34.5310191109
atom         4.6506600000        9.1218900000        8.6179500000 H         0.0000000000         0.0000000000        80.1793629636       49.3278084377      -68.7294650965
atom         5.0514400000       10.5462000000        7.6080600000 H         0.0000000000         0.0000000000        33.9661228796     -105.4953328264       42.9532814544
atom         7.4721700000        7.9077500000        9.2341800000 H         0.0000000000         0.0000000000       -51.7524749561       84.3785222740       62.6516728333
atom         6.0381500000        8.3788400000       10.2204000000 H         0.0000000000         0.0000000000       105.6538299830       29.0018399091      -44.0413371969
atom         2.0016000000        1.3895500000        3.6764300000 N         0.0000000000         0.0000000000        48.8131372795      -18.4247428968       28.1410459992
atom        11.3720000000        1.6011300000        5.1654800000 N         0.0000000000         0.0000000000       -22.3028856066      -43.7371025701      -30.7078798459
atom        11.5934000000        5.2656000000        3.6665200000 N         0.0000000000         0.0000000000       -53.2857922166       34.9129066620       23.3208339860
atom         2.0055400000        5.0346700000        5.2041600000 N         0.0000000000         0.0000000000        16.4923656734       42.9785887334      -27.4692033574
atom         4.9729400000        1.3198000000        0.3456100000 N         0.0000000000         0.0000000000       -51.4698735835      -45.9669103388       22.0999567304
atom         8.8137300000        1.6176000000        1.7542500000 N         0.0000000000         0.0000000000        30.0288461363      -53.4057658262      -34.0841310301
atom         8.5075300000        5.2830000000        0.3555800000 N         0.0000000000         0.0000000000        46.8160087364       19.3060191766       24.4676007657
atom         4.6401300000        5.0362100000        1.8793300000 N         0.0000000000         0.0000000000       -15.2846665489       42.4482800668      -26.0521424978
atom        11.2432000000       11.8661000000        3.0330600000 N         0.0000000000         0.0000000000       -47.1903913994       18.0619936888      -23.0462182972
atom         2.0363600000       11.6203000000        1.4704900000 N         0.0000000000         0.0000000000         9.6807336964       37.4999856772       36.1773102038
atom         1.7075400000        8.0632300000        2.9919900000 N         0.0000000000         0.0000000000        54.5020425474      -35.1220579866      -23.0768241910
atom        11.3249000000        8.2315400000        1.4076500000 N         0.0000000000         0.0000000000       -19.3525376708      -49.5684766902       29.5991274394
atom         8.3866100000       11.9239000000        6.3722700000 N         0.0000000000         0.0000000000        52.6468268456       40.7724313378      -19.5576124258
atom         4.4486000000       11.5802000000        4.8353500000 N         0.0000000000         0.0000000000       -35.6511409590       48.8358322828       25.9713518455
atom         4.7268500000        8.0299300000        6.3445900000 N         0.0000000000         0.0000000000       -47.4388108408      -28.8695771340      -21.0665390623
atom         8.7246400000        8.3215800000        4.8191000000 N         0.0000000000         0.0000000000         9.4348574679      -40.7534955668       29.6102348640
atom         1.8565000000        1.4566100000       10.3998000000 N         0.0000000000         0.0000000000        50.2436388248      -19.3037260916       28.1101466559
atom        11.3233000000        1.5881400000       11.8281000000 N         0.0000000000         0.0000000000       -17.9933640245      -42.6436510479      -32.9368334488
atom        11.5121000000        5.2318900000       10.3033000000 N         0.0000000000         0.0000000000       -47.9150299281       28.0996429908       22.4007934000
atom         1.9185300000        5.1353300000       11.9212000000 N         0.0000000000         0.0000000000        22.7998391035       50.9330754496      -26.5630397348
atom         5.3323400000        1.0137000000        6.8721900000 N         0.0000000000         0.0000000000        -7.4939499113       -8.0432200723       65.2888698108
atom         8.5722700000        1.5875300000        8.6102200000 N         0.0000000000         0.0000000000        24.1891956826      -51.2450685195      -27.8404895655
atom         8.5083700000        5.2057900000        6.9513600000 N         0.0000000000         0.0000000000        50.0748643555       26.7588039255       25.6285087451
atom         4.5414000000        4.9717700000        8.4695700000 N         0.0000000000         0.0000000000       -10.7392793299       47.3556828091      -30.9688585356
atom        11.5109000000       11.9179000000        9.5668900000 N         0.0000000000         0.0000000000       -46.8082049808       20.3486901216      -23.7014400613
atom         1.9852300000       11.7742000000        8.0935700000 N         0.0000000000         0.0000000000        26.2757648855       45.5465520726       30.5126193381
atom         1.7549800000        8.0161600000        9.5809800000 N         0.0000000000         0.0000000000        49.8987033519      -28.2109399856      -24.8777482965
atom        11.3849000000        8.2210100000        8.0880800000 N         0.0000000000         0.0000000000       -23.9555015737      -47.5973432507       28.4087047478
atom         8.1659300000       12.0734000000       12.9640000000 N         0.0000000000         0.0000000000        39.6002046445        6.9866103350      -32.2767449842
atom         4.7170500000       11.8312000000       11.2909000000 N         0.0000000000         0.0000000000       -30.9614759475       54.9307064729       21.4713911576
atom         4.7914500000        8.1505100000       13.0147000000 N         0.0000000000         0.0000000000       -46.6262965715      -17.5190361235      -28.8846383982
atom         8.6313000000        8.2018000000       11.4750000000 N         0.0000000000         0.0000000000        24.5052347725      -47.2416890898       32.3060883585
atom         0.8659600000        1.9824300000        3.0137500000 O         0.0000000000         0.0000000000       170.8657058619       -8.2338191257        2.2464775634
atom        12.1608000000        2.6084100000        5.8210700000 O         0.0000000000         0.0000000000       -43.0185136269     -162.4966092256       -2.3402353150
atom         1.6652400000        0.6842600000        4.6139200000 O         0.0000000000         0.0000000000        87.1114577580      179.6451685097     -241.1322697697
atom        10.5273000000        2.0911300000        4.4306400000 O         0.0000000000         0.0000000000       215.0835689174     -124.3847492733      184.6379779888
atom         3.1025500000        1.6727400000        3.2360400000 O         0.0000000000         0.0000000000      -282.1714805829      -74.0064347491      113.0184631955
atom        11.6571000000        0.4351600000        5.3904800000 O         0.0000000000         0.0000000000       -75.5210611796      296.6482127857      -58.8899668441
atom        12.6484000000        4.4369300000        3.1141500000 O         0.0000000000         0.0000000000      -165.8077146186       34.5341806712      -11.9722923049
atom         1.2959500000        4.0092300000        5.8968400000 O         0.0000000000         0.0000000000        29.4596235099      165.8031102030      -13.2547494992
atom        12.0136000000        6.0085200000        4.5365400000 O         0.0000000000         0.0000000000      -106.3643892114     -189.8544871479     -223.6844223408
atom        10.4709000000        5.1178800000        3.2096500000 O         0.0000000000         0.0000000000       289.4469154411       39.4228278824      119.0677064473
atom         2.8113400000        4.5703700000        4.4086400000 O         0.0000000000         0.0000000000      -202.9536391845      118.0405854474      199.2804247548
atom         1.7073900000        6.1873900000        5.4683900000 O         0.0000000000         0.0000000000        79.2565421577     -294.3975872460      -70.3395326936
atom         5.9987100000        1.4675200000        5.6903100000 O         0.0000000000         0.0000000000      -119.9737723923       28.2205915710      110.4840937375
atom         8.0100000000        2.6451100000        2.4027200000 O         0.0000000000         0.0000000000        33.0184750485     -163.7933603079        0.6543970833
atom         5.4625800000        0.5347900000        1.1406200000 O         0.0000000000         0.0000000000      -123.6973388027      204.5194630528     -205.5878585696
atom         9.4908400000        2.0843500000        0.8527400000 O         0.0000000000         0.0000000000      -169.6979529962     -116.4650710131      227.9477234385
atom         4.7992300000        1.8772600000        7.5538900000 O         0.0000000000         0.0000000000       128.0412376885     -220.2721795285     -170.1464322041
atom         8.7058300000        0.4669100000        2.1519400000 O         0.0000000000         0.0000000000        26.6176231125      298.1315506320     -103.3845512561
atom         7.4193400000        4.5316900000        6.2759400000 O         0.0000000000         0.0000000000       171.5014521598       19.0991161245        2.9265778323
atom         5.2822800000        4.0003600000        2.6134800000 O         0.0000000000         0.0000000000       -12.8549286989      166.0128465523      -26.0469550370
atom         8.1437800000        6.0173200000        1.2600400000 O         0.0000000000         0.0000000000        95.1392878137     -187.1823680260     -230.8481423355
atom         9.6342600000        4.9267900000        6.5756500000 O         0.0000000000         0.0000000000      -288.7081625978       73.5061035236       97.7549629012
atom         3.8144300000        4.5959400000        1.0946600000 O         0.0000000000         0.0000000000       207.0190753023      111.8338611607      196.5686155850
atom         4.9964500000        6.1801400000        2.1108500000 O         0.0000000000         0.0000000000       -92.7407256474     -290.2237697804      -61.8380967479
atom        12.3901000000       11.2835000000        3.6727800000 O         0.0000000000         0.0000000000      -169.8929282977        6.8497252951       -0.9629917582
atom         1.5903800000       10.6788000000        0.4946800000 O         0.0000000000         0.0000000000       -26.3625005001      155.5077118700       72.7002970299
atom        11.5607000000       12.6351000000        2.1433900000 O         0.0000000000         0.0000000000       -83.6964119197     -195.9313316239      227.5359979013
atom         2.8905400000       11.1551000000        2.2051100000 O         0.0000000000         0.0000000000      -215.3132573786      118.1691649922     -183.8309019421
atom        10.1527000000       11.5141000000        3.4535100000 O         0.0000000000         0.0000000000       278.2045398144       92.2855800045     -108.2515625055
atom         1.5155700000       12.7259000000        1.4481900000 O         0.0000000000         0.0000000000       133.8066299322     -278.7249757595        8.8967992443
atom         0.6618700000        8.9120900000        3.5201500000 O         0.0000000000         0.0000000000       163.6551471303      -40.3234396862       18.0226051050
atom        12.0235000000        9.2917800000        0.7231200000 O         0.0000000000         0.0000000000       -21.3953067519     -167.4863665832        9.6469926371
atom         1.2901900000        7.3341400000        2.1087300000 O         0.0000000000         0.0000000000       105.3417987512      185.6672275880      226.5035179037
atom         2.8234500000        8.1858000000        3.4712500000 O         0.0000000000         0.0000000000      -288.0106892117      -33.3584619335     -124.8312134176
atom        10.5600000000        8.6592700000        2.2592400000 O         0.0000000000         0.0000000000       193.7705067150     -107.2191440604     -216.1967602969
atom        11.5953000000        7.0911200000        1.0732300000 O         0.0000000000         0.0000000000       -71.2045721423      291.5667931546       88.1703249997
atom         7.2467700000       11.6283000000        0.6524600000 O         0.0000000000         0.0000000000       155.2776435726      -24.8921761618      -76.1892133312
atom         5.2835800000       10.6162000000        4.1794600000 O         0.0000000000         0.0000000000       -34.0326117065      161.4827759218       13.4210773127