begin
comment generated by PY
lattice        11.4200000000         0.0000000000         0.0000000000
lattice         0.0000000000        10.5800000000         0.0000000000
lattice         0.0000000000         0.0000000000        13.1400000000
atom         7.2933400000        5.0705000000       10.9272000000 H         0.0000000000         0.0000000000        41.9630812453      128.7881099598       18.7136448075
atom         7.6194000000        2.5870900000       11.7979000000 H         0.0000000000         0.0000000000        93.1485416283      -34.0943732334       86.4660489898
atom         3.8162400000        7.9393600000        1.3553300000 H         0.0000000000         0.0000000000       -93.1455389795       34.0988004329      -86.4616558018
atom         9.5261200000        7.9385600000        5.2280200000 H         0.0000000000         0.0000000000       -93.1496776742       34.1006107452       86.4479577177
atom         1.9094000000        2.5873800000        7.9254500000 H         0.0000000000         0.0000000000        93.1432214537      -34.0921197803      -86.4581294539
atom         3.8161900000        7.8775700000        7.9251100000 H         0.0000000000         0.0000000000       -93.1505739611      -34.0967139383      -86.4439703717
atom         7.6193900000        2.6485900000        5.2278600000 H         0.0000000000         0.0000000000        93.1470132701       34.0988948038       86.4541066062
atom         1.9093800000        2.6492500000        1.3553500000 H         0.0000000000         0.0000000000        93.1417522721       34.0952883233      -86.4570908777
atom         9.5261800000        7.8770200000       11.7977000000 H         0.0000000000         0.0000000000       -93.1361869222      -34.0921150027       86.4547082149
atom         7.9013100000        2.4407600000        0.3996200000 H         0.0000000000         0.0000000000        66.2667719348      -10.8339738187     -119.7509470663
atom         3.5344000000        8.0858100000       12.7536000000 H         0.0000000000         0.0000000000       -66.2688398392       10.8191341782      119.7543116590
atom         9.2439100000        8.0847300000        6.9697100000 H         0.0000000000         0.0000000000       -66.2350501516       10.8536397129     -119.7662132677
atom         2.1913600000        2.4412000000        6.1837400000 H         0.0000000000         0.0000000000        66.2571583351      -10.8457239845      119.7546095545
atom         3.5339300000        7.7313900000        6.1834400000 H         0.0000000000         0.0000000000       -66.2277776825      -10.8522940176      119.7690686367
atom         7.9014100000        2.7947800000        6.9695500000 H         0.0000000000         0.0000000000        66.2554555677       10.8487925275     -119.7553852167
atom         2.1912800000        2.7955700000       12.7536000000 H         0.0000000000         0.0000000000        66.2685244179       10.8339104790      119.7680242886
atom         9.2444300000        7.7306700000        0.3994100000 H         0.0000000000         0.0000000000       -66.2765305913      -10.8291341782     -119.7554101688
atom         9.7142500000        3.5440700000       10.2811000000 H         0.0000000000         0.0000000000        58.7545702845      -47.5272773510      112.6066060038
atom         1.7215600000        6.9821000000        2.8720200000 H         0.0000000000         0.0000000000       -58.7751977911       47.5179374976     -112.6070440356
atom         7.4314800000        6.9823600000        3.7105500000 H         0.0000000000         0.0000000000       -58.7855652698       47.5072056149      112.6095722995
atom         4.0041000000        3.5439100000        9.4425300000 H         0.0000000000         0.0000000000        58.7730003457      -47.5019366461     -112.6153354263
atom         1.7215800000        8.8336200000        9.4426400000 H         0.0000000000         0.0000000000       -58.7841546503      -47.4867769253     -112.6146121529
atom         9.7142100000        1.6923100000        3.7106600000 H         0.0000000000         0.0000000000        58.7763424221       47.5007970056      112.6176225595
atom         4.0040500000        1.6923700000        2.8722600000 H         0.0000000000         0.0000000000        58.7792206388       47.5075174173     -112.6089203364
atom         7.4312700000        8.8340600000       10.2810000000 H         0.0000000000         0.0000000000       -58.7614625024      -47.5183026346      112.6267586754
atom        11.1899000000        3.7321200000       11.2865000000 H         0.0000000000         0.0000000000      -115.2808351428      -73.4709311706       -9.5064991268
atom         0.2459300000        6.7938100000        1.8665300000 H         0.0000000000         0.0000000000       115.2649148497       73.4933018424        9.5263529534
atom         5.9555500000        6.7942500000        4.7156500000 H         0.0000000000         0.0000000000       115.2931601193       73.4534127933       -9.4723565723
atom         5.4798400000        3.7322200000        8.4372400000 H         0.0000000000         0.0000000000      -115.2715229389      -73.4698099316        9.4892643632
atom         0.2456900000        9.0220600000        8.4375900000 H         0.0000000000         0.0000000000       115.2844032601      -73.4717347895        9.4571363123
atom        11.1900000000        1.5040100000        4.7159100000 H         0.0000000000         0.0000000000      -115.2767408905       73.4712886684       -9.4779783747
atom         5.4797900000        1.5041200000        1.8669100000 H         0.0000000000         0.0000000000      -115.2724012499       73.4768735785        9.5045823008
atom         5.9557000000        9.0222600000       11.2866000000 H         0.0000000000         0.0000000000       115.2684788280      -73.4806113032       -9.5206072109
atom         8.7912000000        1.0227100000       10.2012000000 H         0.0000000000         0.0000000000        73.5383409510      -21.5543765104      106.0168040220
atom         2.6441100000        9.5035800000        2.9521400000 H         0.0000000000         0.0000000000       -73.5306773042       21.5412887386     -106.0160263496
atom         8.3548200000        9.5033600000        3.6313400000 H         0.0000000000         0.0000000000       -73.5469609371       21.5538824709      105.9994205077
atom         3.0811700000        1.0227800000        9.5220000000 H         0.0000000000         0.0000000000        73.5312244897      -21.5509713071     -106.0100138143
atom         2.6446300000        6.3128600000        9.5218200000 H         0.0000000000         0.0000000000       -73.5322576496      -21.5608499496     -106.0023409195
atom         8.7910200000        4.2132200000        3.6312700000 H         0.0000000000         0.0000000000        73.5331921812       21.5574908674      106.0082821444
atom         3.0811700000        4.2135200000        2.9521000000 H         0.0000000000         0.0000000000        73.5335538179       21.5543051057     -106.0101017990
atom         8.3541600000        6.3127700000       10.2011000000 H         0.0000000000         0.0000000000       -73.5270201379      -21.5551807679      106.0093430482
atom         9.8520600000       10.3605000000       10.9273000000 H         0.0000000000         0.0000000000       -41.9581708387      128.7724708879       18.7158749872
atom         1.5831300000        0.1656900000        2.2260000000 H         0.0000000000         0.0000000000        41.9804892160     -128.7718669376      -18.7129219598
atom         7.2940800000        0.1657500000        4.3573900000 H         0.0000000000         0.0000000000        41.9382545659     -128.7896215494       18.7096948546
atom         4.1419600000       10.3605000000        8.7958000000 H         0.0000000000         0.0000000000       -41.9618216188      128.7916298272      -18.7034959190
atom         1.5839600000        5.0704400000        8.7957000000 H         0.0000000000         0.0000000000        41.9478201286      128.7926571453      -18.7088795519
atom         9.8516800000        5.4556400000        4.3573800000 H         0.0000000000         0.0000000000       -41.9443224703     -128.7880282428       18.7137778489
atom         4.1419900000        5.4558300000        2.2260700000 H         0.0000000000         0.0000000000       -41.9545439464     -128.7797033850      -18.7207357724
atom         9.4658000000        3.2976800000       12.3921000000 N         0.0000000000         0.0000000000        31.9199897729     -130.4434935342      -39.5912147388
atom         1.9699400000        7.2286500000        0.7609900000 N         0.0000000000         0.0000000000       -31.9283032541      130.4602816131       39.6244627514
atom         7.6795000000        7.2281900000        5.8217200000 N         0.0000000000         0.0000000000       -31.9080509596      130.4649964901      -39.5885646673
atom         3.7558500000        3.2979300000        7.3314100000 N         0.0000000000         0.0000000000        31.9237177053     -130.4591917369       39.5983020848
atom         1.9695800000        8.5879800000        7.3314300000 N         0.0000000000         0.0000000000       -31.9155994223     -130.4696256298       39.5891428840
atom         9.4659300000        1.9381500000        5.8218000000 N         0.0000000000         0.0000000000        31.9134125963      130.4733402696      -39.5773026991
atom         3.7557500000        1.9386200000        0.7611800000 N         0.0000000000         0.0000000000        31.9383445733      130.4653738553       39.6051964314
atom         7.6798700000        8.5876700000       12.3921000000 N         0.0000000000         0.0000000000       -31.9437795306     -130.4325691021      -39.6314815058
atom         8.8027000000        0.9735000000       12.3177000000 N         0.0000000000         0.0000000000       104.4097581501      122.1010361649      -57.9953315409
atom         2.6327800000        9.5528900000        0.8355700000 N         0.0000000000         0.0000000000      -104.3995504866     -122.0969188520       58.0117677025
atom         8.3430600000        9.5523100000        5.7478800000 N         0.0000000000         0.0000000000      -104.4211688639     -122.0573151388      -58.0527394386
atom         3.0925900000        0.9737400000        7.4054500000 N         0.0000000000         0.0000000000       104.4158229557      122.0742772955       58.0347425132
atom         2.6330900000        6.2638300000        7.4052900000 N         0.0000000000         0.0000000000      -104.4304078658      122.0618098169       58.0296607019
atom         8.8025000000        4.2622900000        5.7478100000 N         0.0000000000         0.0000000000       104.4286216784     -122.0790445613      -58.0426974565
atom         3.0926800000        4.2628300000        0.8355400000 N         0.0000000000         0.0000000000       104.4065064943     -122.0976441355       58.0279348740
atom         8.3428600000        6.2634500000       12.3176000000 N         0.0000000000         0.0000000000      -104.4093702597      122.1118243624      -58.0286740888
atom        10.5929000000        1.7448800000       11.0069000000 N         0.0000000000         0.0000000000       -84.1982834873       31.3003325728      -51.3698392692
atom         0.8425600000        8.7811700000        2.1462500000 N         0.0000000000         0.0000000000        84.2203060035      -31.3110843230       51.4191527503
atom         6.5528700000        8.7814500000        4.4367200000 N         0.0000000000         0.0000000000        84.2043988843      -31.3250384147      -51.4121050205
atom         4.8829100000        1.7449100000        8.7163100000 N         0.0000000000         0.0000000000       -84.2249993101       31.3180456525       51.4548463640
atom         0.8427500000        7.0347300000        8.7162400000 N         0.0000000000         0.0000000000        84.2510777154       31.3297775353       51.4663545476
atom        10.5929000000        3.4913200000        4.4369400000 N         0.0000000000         0.0000000000       -84.2452221091      -31.3401571235      -51.4493876133
atom         4.8828900000        3.4914100000        2.1463300000 N         0.0000000000         0.0000000000       -84.2136060035      -31.3322968583       51.4159460569
atom         6.5525400000        7.0349500000       11.0070000000 N         0.0000000000         0.0000000000        84.1988094339       31.3128284339      -51.4395957725
atom        10.2125000000        3.5172700000        0.4256300000 N         0.0000000000         0.0000000000        59.4238552404       18.9399068216       88.8014158006
atom         1.2232000000        7.0091900000       12.7274000000 N         0.0000000000         0.0000000000       -59.3940863902      -18.9217810180      -88.7282114518
atom         6.9324300000        7.0084600000        6.9950300000 N         0.0000000000         0.0000000000       -59.4163565906      -18.9301567988       88.7828207910
atom         4.5028000000        3.5173700000        6.1579500000 N         0.0000000000         0.0000000000        59.4216693145       18.9293095890      -88.7973145234
atom         1.2224600000        8.8075000000        6.1581000000 N         0.0000000000         0.0000000000       -59.4344850430       18.9439162824      -88.7858097458
atom        10.2128000000        1.7185300000        6.9952300000 N         0.0000000000         0.0000000000        59.4576119566      -18.9303530613       88.7897322863
atom         4.5025800000        1.7190600000       12.7277000000 N         0.0000000000         0.0000000000        59.4112909792      -18.9234820824      -88.7982387669
atom         6.9332300000        8.8072600000        0.4256400000 N         0.0000000000         0.0000000000       -59.3766114153       18.9336955635       88.8151609273
atom         9.5401900000        0.3879500000        0.2706300000 N         0.0000000000         0.0000000000        39.5098183706      -56.9643026187       79.0616399594
atom         1.8953300000       10.1385000000       12.8827000000 N         0.0000000000         0.0000000000       -39.4866901554       56.8865361132      -79.0975614325
atom         7.6055900000       10.1379000000        6.8407700000 N         0.0000000000         0.0000000000       -39.5058123401       56.8771007059       79.0598466285
atom         3.8299000000        0.3881700000        6.3124800000 N         0.0000000000         0.0000000000        39.4947972260      -56.9303589822      -79.0704571537
atom         1.8957400000        5.6782200000        6.3123600000 N         0.0000000000         0.0000000000       -39.5021959487      -56.9312443181      -79.0637808528
atom         9.5399000000        4.8478300000        6.8407600000 N         0.0000000000         0.0000000000        39.4933340048       56.9249332729       79.0546380435
atom         3.8301900000        4.8484000000       12.8827000000 N         0.0000000000         0.0000000000        39.4965940571       56.9293402978      -79.0858637984
atom         7.6054300000        5.6779100000        0.2705400000 N         0.0000000000         0.0000000000       -39.4893969188      -56.9465047718       79.0491936254
atom         0.2636800000        1.4333500000       10.2827000000 N         0.0000000000         0.0000000000        81.0759361256      -36.1487273100      -49.7510452751
atom        11.1718000000        9.0924400000        2.8706200000 N         0.0000000000         0.0000000000       -81.1023497253       36.1265919270       49.7346356258
atom         5.4621600000        9.0932900000        3.7125600000 N         0.0000000000         0.0000000000       -81.0846409974       36.1731023092      -49.6987309425
atom         5.9735900000        1.4333400000        9.4406800000 N         0.0000000000         0.0000000000        81.0738214615      -36.1474754656       49.7243021586
atom        11.1721000000        6.7229800000        9.4405400000 N         0.0000000000         0.0000000000       -81.0818043371      -36.1433849264       49.7261735633
atom         0.2635400000        3.8030400000        3.7126600000 N         0.0000000000         0.0000000000        81.0984758361       36.1523880009      -49.7142554932
atom         5.9736600000        3.8028700000        2.8705800000 N         0.0000000000         0.0000000000        81.0916112434       36.1373812132       49.7144151197
atom         5.4617500000        6.7235300000       10.2827000000 N         0.0000000000         0.0000000000       -81.0970576960      -36.1490196708      -49.6999123767
atom         0.0135600000        3.6692000000        0.3004100000 O         0.0000000000         0.0000000000      -294.8469223033      -32.7692670569       28.7546989676
atom         0.0021600000        6.8572800000       12.8527000000 O         0.0000000000         0.0000000000       294.8216019402       32.7528915133      -28.7838283901
atom         5.7114100000        6.8567300000        6.8694500000 O         0.0000000000         0.0000000000       294.8287465712       32.7068322183       28.8390625202
atom         5.7238700000        3.6689000000        6.2833300000 O         0.0000000000         0.0000000000      -294.8587840586      -32.6710528186      -28.7811613616
atom         0.0014200000        8.9591100000        6.2836800000 O         0.0000000000         0.0000000000       294.8432893805      -32.6908991525      -28.8296387268
atom         9.5744200000        1.6533700000        8.0472700000 O         0.0000000000         0.0000000000       151.8085805460       14.7293009897     -256.3319846319
atom         5.7236200000        1.5671900000       12.8530000000 O         0.0000000000         0.0000000000      -294.8502368732       32.7440992711      -28.7577813476
atom         5.7121800000        8.9591600000        0.3005100000 O         0.0000000000         0.0000000000       294.8351909893      -32.7600777950       28.7329685750
atom         9.5739700000        3.5821200000        1.4776100000 O         0.0000000000         0.0000000000       151.8451297417      -14.6512358527     -256.3198314859
atom         1.8617400000        6.9444200000       11.6755000000 O         0.0000000000         0.0000000000      -151.8733268800       14.6266883601      256.2813333805
atom         7.5706900000        6.9433200000        8.0471700000 O         0.0000000000         0.0000000000      -151.7924020921       14.7230703843     -256.3533953457
atom         3.8643900000        3.5824900000        5.1059100000 O         0.0000000000         0.0000000000       151.8165196422      -14.7179938706      256.3438145744
atom         1.8607000000        8.8726300000        5.1059600000 O         0.0000000000         0.0000000000      -151.7929408812      -14.7240223473      256.3640095840
atom         0.0139000000        1.5669000000        6.8698400000 O         0.0000000000         0.0000000000      -294.8654943223       32.6851950136       28.7978944972
atom         3.8641100000        1.6541800000       11.6757000000 O         0.0000000000         0.0000000000       151.8302430343       14.6567058859      256.3207498875
atom         7.5718700000        8.8721300000        1.4775800000 O         0.0000000000         0.0000000000      -151.8936744426      -14.6547119407     -256.3058145744
atom         9.3340900000        0.8572400000        1.3883600000 O         0.0000000000         0.0000000000        50.3583629353     -112.5767411501     -277.2300761144
atom         2.1016100000        9.6693100000       11.7649000000 O         0.0000000000         0.0000000000       -50.3928329684      112.5721117732      277.2695323563
atom         7.8116500000        9.6685200000        7.9584900000 O         0.0000000000         0.0000000000       -50.3381368002      112.6135145649     -277.2126924816
atom         3.6236300000        0.8574300000        5.1947600000 O         0.0000000000         0.0000000000        50.3975495484     -112.5745608046      277.2247134133
atom         2.1019100000        6.1475000000        5.1946300000 O         0.0000000000         0.0000000000       -50.3647779309     -112.5862504923      277.2285897142
atom         9.3337500000        4.3785100000        7.9584700000 O         0.0000000000         0.0000000000        50.3669195816      112.5870493337     -277.2136926001
atom         3.6240200000        4.3792000000       11.7649000000 O         0.0000000000         0.0000000000        50.3724685643      112.5657786376      277.2658742442
atom         7.8116700000        6.1471400000        1.3882700000 O         0.0000000000         0.0000000000       -50.3862827084     -112.5674538983     -277.2224430730
atom        10.2402000000        9.9937000000       13.1272000000 O         0.0000000000         0.0000000000      -169.9330924734      237.7394995947       70.1486597594
atom         1.1951800000        0.5325800000        0.0261500000 O         0.0000000000         0.0000000000       169.9597615851     -237.6801962617      -70.1572728391
atom         6.9056100000        0.5321300000        6.5573500000 O         0.0000000000         0.0000000000       169.9221137610     -237.7131856179       70.1453174701
atom         4.5299800000        9.9939600000        6.5958400000 O         0.0000000000         0.0000000000      -169.9398914333      237.7101392596      -70.1377930137
atom         1.1957300000        4.7039800000        6.5957700000 O         0.0000000000         0.0000000000       169.9299144939      237.7258352149      -70.1574883304
atom        10.2399000000        5.8220800000        6.5573700000 O         0.0000000000         0.0000000000      -169.9160529758     -237.7269841034       70.1350241635
atom         4.5302800000        5.8225600000        0.0261800000 O         0.0000000000         0.0000000000      -169.9481324454     -237.7100679492      -70.1679106581
atom         6.9053500000        4.7037300000       13.1271000000 O         0.0000000000         0.0000000000       169.9532036372      237.7210783558       70.1625141584
atom         0.3215300000        0.2865800000        9.8048900000 O         0.0000000000         0.0000000000       -14.6127176640      277.1497721672      117.5168153910
atom        11.1137000000       10.2392000000        3.3484000000 O         0.0000000000         0.0000000000        14.6923568545     -277.1398142679     -117.4947443178
atom         5.4044900000       10.2402000000        3.2349900000 O         0.0000000000         0.0000000000        14.5796164810     -277.1979729700      117.4468091233
atom         6.0314300000        0.2865200000        9.9183300000 O         0.0000000000         0.0000000000       -14.6063430662      277.1539338282     -117.4762683241
atom        11.1144000000        5.5761500000        9.9181900000 O         0.0000000000         0.0000000000        14.5871626021      277.1497829295     -117.4759748047
atom         0.3212300000        4.9498400000        3.2349300000 O         0.0000000000         0.0000000000       -14.5735566659     -277.1587324323      117.4867799137
atom         6.0315900000        4.9496500000        3.3483100000 O         0.0000000000         0.0000000000       -14.6263370114     -277.1521517797     -117.4796186085
atom         5.4038300000        5.5767900000        9.8048700000 O         0.0000000000         0.0000000000        14.6346142580      277.1396612405      117.5126268863
atom         1.1560100000        2.3009300000       10.1877000000 O         0.0000000000         0.0000000000      -210.1684446328     -199.6071554775       22.1665593819
atom        10.2797000000        8.2246600000        2.9657000000 O         0.0000000000         0.0000000000       210.1047321218      199.6458789881      -22.1914954036
atom         4.5696800000        8.2258700000        3.6174800000 O         0.0000000000         0.0000000000       210.1929772728      199.5777842614       22.1667958537
atom         6.8658700000        2.3009600000        9.5358600000 O         0.0000000000         0.0000000000      -210.1518786443     -199.6219708745      -22.2051688428
atom        10.2797000000        7.5904700000        9.5356800000 O         0.0000000000         0.0000000000       210.1665853621     -199.5926732161      -22.1952774521
atom         1.1559900000        2.9355800000        3.6176500000 O         0.0000000000         0.0000000000      -210.1770675048      199.5800841671       22.1485218945
atom         6.8659300000        2.9352200000        2.9655800000 O         0.0000000000         0.0000000000      -210.1453566482      199.6271113666      -22.1707725559
atom         4.5694600000        7.5911600000       10.1878000000 O         0.0000000000         0.0000000000       210.1494279586     -199.6184343328       22.1338918090
atom         8.3608200000        2.3444200000       12.5566000000 C         0.0000000000         0.0000000000        95.9397923829      -25.6456500496      -28.8549809369
atom         3.0748300000        8.1820200000        0.5966400000 C         0.0000000000         0.0000000000       -95.9485236271       25.6244054186       28.8129658956
atom         8.7846200000        8.1812500000        5.9866000000 C         0.0000000000         0.0000000000       -95.9210823778       25.6797317666      -28.8383274137
atom         2.6508100000        2.3447400000        7.1667700000 C         0.0000000000         0.0000000000        95.9441441088      -25.6629604562       28.8105219976
atom         3.0746800000        7.6348800000        7.1665600000 C         0.0000000000         0.0000000000       -95.9248458118      -25.6798596047       28.8360627968
atom         8.3608300000        2.8912600000        5.9865000000 C         0.0000000000         0.0000000000        95.9341313605       25.6740378214      -28.8217718318
atom         2.6507900000        2.8919000000        0.5966700000 C         0.0000000000         0.0000000000        95.9414736742       25.6401136022       28.8100657071
atom         8.7848200000        7.6343700000       12.5564000000 C         0.0000000000         0.0000000000       -95.9409527424      -25.6420878685      -28.7566993171
atom        10.2621000000        3.1750200000       11.1742000000 C         0.0000000000         0.0000000000       -19.0123779998      -91.7011718989       77.9106987848
atom         1.1736000000        7.3510800000        1.9789300000 C         0.0000000000         0.0000000000        19.0155342903       91.7176689186      -77.9339295788
atom         6.8834400000        7.3512300000        4.6036400000 C         0.0000000000         0.0000000000        19.0212044177       91.7024115394       77.9619953545
atom         4.5520700000        3.1750900000        8.5493800000 C         0.0000000000         0.0000000000       -19.0160617026      -91.7137614680      -77.9615983347
atom         1.1735100000        8.4649300000        8.5495000000 C         0.0000000000         0.0000000000        18.9939801042      -91.7003981526      -77.9757355150
atom        10.2622000000        2.0611200000        4.6038200000 C         0.0000000000         0.0000000000       -19.0469979128       91.6932646854       77.9440576298
atom         4.5520400000        2.0612800000        1.9791600000 C         0.0000000000         0.0000000000       -19.0347961155       91.7203941079      -77.9293821805
atom         6.8834200000        8.4650800000       11.1742000000 C         0.0000000000         0.0000000000        19.0374780454      -91.7162886917       77.9076119588
atom         9.4715400000        0.7982900000       11.0313000000 C         0.0000000000         0.0000000000        40.0133656762       70.6995244261       83.2912569909
atom         1.9638100000        9.7279300000        2.1220100000 C         0.0000000000         0.0000000000       -40.0131733154      -70.6668211630      -83.3149319658
atom         7.6744100000        9.7278400000        4.4613300000 C         0.0000000000         0.0000000000       -40.0582378138      -70.6870161726       83.2984253667
atom         3.7614700000        0.7983600000        8.6919000000 C         0.0000000000         0.0000000000        40.0310507749       70.6887345498      -83.3044497045
atom         1.9643200000        6.0883400000        8.6917700000 C         0.0000000000         0.0000000000       -40.0605483146       70.6878203115      -83.3055184604
atom         9.4713200000        4.4377400000        4.4613400000 C         0.0000000000         0.0000000000        40.0420995448      -70.6729605906       83.3087247281
atom         3.7615000000        4.4380000000        2.1220300000 C         0.0000000000         0.0000000000        40.0333610872      -70.6651331783      -83.3164886121
atom         7.6738900000        6.0883200000       11.0312000000 C         0.0000000000         0.0000000000       -40.0164262242       70.6734172369       83.3232095439
energy    -35562.8207987344
charge 0
end
begin
comment generated by PY
lattice        12.0980588510         0.0000000000         0.0000000000
lattice         0.0000000000        10.8961259970         0.0000000000
lattice         0.0000000000         0.0000000000        13.0634697970
atom         7.6039500000        5.2768200000       10.6518300000 H         0.0000000000         0.0000000000        44.6455361536      114.2252567472       26.5974635829
atom         8.2417700000        2.8093100000       11.4610300000 H         0.0000000000         0.0000000000        74.9674472191      -26.0769628036      114.1207911411
atom         4.0473600000        8.2581700000        1.4988700000 H         0.0000000000         0.0000000000       -89.7398092089       41.3420771816      -82.2334504553
atom        10.1121800000        8.1272300000        5.1361200000 H         0.0000000000         0.0000000000      -100.8881229536       51.7664513710       84.7272968916