begin
comment generated by PY
lattice         9.0079002400         0.0000000000         0.0000000000
lattice        -4.5194083500         7.8356765100         0.0000000000
lattice        -0.0482759780        -2.4849568800         6.4253491300
atom         4.4503000000        1.0557700000        1.5250600000 C         0.0000000000         0.0000000000        72.9746768015        1.2916794857       16.2139977796
atom         2.4291700000       -0.1969800000        1.5829500000 C         0.0000000000         0.0000000000       -25.5562018540      -61.0917488064       18.1540861508
atom         2.3736500000        2.1714700000        1.6597500000 C         0.0000000000         0.0000000000       -46.4339535126       80.2141392765        8.4142388358
atom        -0.0100800000        4.2949500000        4.9002900000 C         0.0000000000         0.0000000000       -72.9705537410       -1.2913609758      -16.2163118051
atom         2.0110500000        5.5477000000        4.8424000000 C         0.0000000000         0.0000000000        25.5555484008       61.0955401971      -18.1555934828
atom         2.0665700000        3.1792500000        4.7656000000 C         0.0000000000         0.0000000000        46.4297935318      -80.2144551299       -8.4160857753
atom         3.8220700000       -0.1770600000        1.5374800000 C         0.0000000000         0.0000000000        73.7679906644     -117.8995884463      -40.9435281457
atom         1.6934000000        0.9688400000        1.7933600000 C         0.0000000000         0.0000000000      -128.8971177094      -12.5267396627       75.5612531997
atom         3.7355600000        2.2337600000        1.4378700000 C         0.0000000000         0.0000000000        77.6507414394      115.3979266039      -48.6284733566
atom         0.6181500000        5.5277800000        4.8878700000 C         0.0000000000         0.0000000000       -73.7685975707      117.9001190518       40.9430130558
atom         2.7468200000        4.3818800000        4.6319800000 C         0.0000000000         0.0000000000       128.8940760587       12.5226979457      -75.5541102717
atom         0.7046500000        3.1169600000        4.9874800000 C         0.0000000000         0.0000000000       -77.6428419837     -115.3974048206       48.6286358448
atom         6.0193500000        1.1230600000        1.6361200000 N         0.0000000000         0.0000000000        34.4187326459        7.8929195574      -10.5896937953
atom        -2.8214700000        6.2234400000        1.5883700000 N         0.0000000000         0.0000000000       -22.6714669725      -32.4554925170        2.7003695210
atom         1.5831400000        3.4971900000        1.7855700000 N         0.0000000000         0.0000000000       -17.6752006501       21.7190793888       -2.8257515249
atom        -1.5791400000        4.2276600000        4.7892200000 N         0.0000000000         0.0000000000       -34.4143155458       -7.8924053191       10.5985161178
atom         7.2616800000       -0.8727200000        4.8369800000 N         0.0000000000         0.0000000000        22.6747797208       32.4423006063       -2.7023096676
atom         2.8570700000        1.8535300000        4.6397800000 N         0.0000000000         0.0000000000        17.6819761937      -21.7149058553        2.8296999213
atom         0.0294000000        6.5074700000        1.3895100000 N         0.0000000000         0.0000000000      -127.3633106585      197.4969151326       28.0474254947
atom         0.3912400000        0.9291400000        2.2479800000 N         0.0000000000         0.0000000000       223.8826245492        3.0541029757      -83.3642072544
atom         4.3805500000        3.3907300000        1.0741800000 N         0.0000000000         0.0000000000      -114.4622793696     -198.0348974674       67.3932900416
atom         4.4108200000       -1.1567500000        5.0358400000 N         0.0000000000         0.0000000000       127.3594448829     -197.4961771950      -28.0474330396
atom         4.0489800000        4.4215800000        4.1773700000 N         0.0000000000         0.0000000000      -223.8816204103       -3.0563400285       83.3612320179
atom         0.0596700000        1.9599900000        5.3511700000 N         0.0000000000         0.0000000000       114.4472833200      198.0383733425      -67.3922762290
atom         6.5523400000        2.2307700000        1.7575300000 O         0.0000000000         0.0000000000      -118.9256290740     -256.1511748495      -29.0373190446
atom         6.6688200000        0.0558600000        1.5851400000 O         0.0000000000         0.0000000000      -146.3336128064      238.8415367068       15.6255278548
atom        -2.1978500000        5.2280800000        1.1686600000 O         0.0000000000         0.0000000000      -141.9496185227      227.3138498911       98.2448695290
atom        -3.9933400000        6.1686500000        2.0042100000 O         0.0000000000         0.0000000000       269.3982473443       11.5616423540      -98.3600403514
atom         0.3730300000        3.4462900000        2.0991200000 O         0.0000000000         0.0000000000       275.7456711082       16.8899152526      -67.7605655813
atom         2.1806000000        4.5734400000        1.5693000000 O         0.0000000000         0.0000000000      -134.9324194808     -243.4703871984       47.9907983913
atom        -2.1121200000        3.1199500000        4.6678200000 O         0.0000000000         0.0000000000       118.9225389605      256.1531769782       29.0341278667
atom        -2.2286000000        5.2948600000        4.8402100000 O         0.0000000000         0.0000000000       146.3292627592     -238.8455597673      -15.6289961849
atom         6.6380600000        0.1226400000        5.2566900000 O         0.0000000000         0.0000000000       141.9455598663     -227.3076004826      -98.2430246851
atom         8.4335500000       -0.8179300000        4.4211400000 O         0.0000000000         0.0000000000      -269.3967106840      -11.5593362992       98.3599250486
atom         4.0671900000        1.9044300000        4.3262300000 O         0.0000000000         0.0000000000      -275.7474425129      -16.8899610085       67.7597261537
atom         2.2596200000        0.7772800000        4.8560600000 O         0.0000000000         0.0000000000       134.9289373381      243.4712572316      -47.9934983913
atom         1.0422100000        6.5795900000        1.3935600000 H         0.0000000000         0.0000000000       -66.9986514821       -3.8500348410       -2.3816112453
atom        -0.4860700000        5.6521500000        1.2390300000 H         0.0000000000         0.0000000000        33.8159363351       49.4256422463        7.0648970535
atom        -0.0444100000        0.0198000000        2.3541600000 H         0.0000000000         0.0000000000        28.4284154298       60.0969978650       -6.6984501877
atom        -0.0832700000        1.8125600000        2.4080200000 H         0.0000000000         0.0000000000        30.4792891023      -57.3611892742      -13.3399352899
atom         3.8300300000        4.2421300000        1.0731500000 H         0.0000000000         0.0000000000        37.4439509178      -53.2185989703        2.9488644725
atom         5.3872100000        3.3521700000        0.9548900000 H         0.0000000000         0.0000000000       -68.1079635821        5.6220770701       12.4056665737
atom         3.3980000000       -1.2288700000        5.0317900000 H         0.0000000000         0.0000000000        67.0047230996        3.8497715676        2.3815434875
atom         4.9262900000       -0.3014300000        5.1863200000 H         0.0000000000         0.0000000000       -33.8171734211      -49.4288784809       -7.0656672333
atom         4.4846200000        5.3309200000        4.0711900000 H         0.0000000000         0.0000000000       -28.4265475254      -60.0948842652        6.6978836740
atom         4.5234800000        3.5381500000        4.0173300000 H         0.0000000000         0.0000000000       -30.4803339461       57.3631640849       13.3402426219
atom         0.6101800000        1.1085900000        5.3522000000 H         0.0000000000         0.0000000000       -37.4409993805       53.2163398881       -2.9490173201
atom        -0.9470000000        1.9985500000        5.4704600000 H         0.0000000000         0.0000000000        68.1145349868       -5.6222421599      -12.4060147241
energy    -10607.2803269223
charge 0
end
begin
comment generated by PY
lattice        10.4282760090         0.0000000000         0.0000000000
lattice        -5.8500517690        10.1427243750         0.0000000000
lattice        -0.0797827590        -4.1067363870        10.6187818720
atom         4.8828300000        1.3835400000        2.3342900000 C         0.0000000000         0.0000000000        11.7289590075       -4.8787898106       56.3293702083
atom         2.9111700000        0.0030300000        2.6611600000 C         0.0000000000         0.0000000000         9.2252034112      -24.4258980263       -5.4477517306
atom         2.7556900000        2.4249600000        2.7255800000 C         0.0000000000         0.0000000000        -6.7557785653        4.5227056955      -58.1987315390
atom        -0.3465500000        4.5560800000        8.2229000000 C         0.0000000000         0.0000000000       -51.9993198005       -8.1868598824      -72.6676657810
atom         1.3713000000        6.1625700000        7.7452400000 C         0.0000000000         0.0000000000        15.3698929930        1.6931866066       58.1688480498
atom         1.9017000000        3.8089000000        7.9889000000 C         0.0000000000         0.0000000000        22.0589281078      -23.7730595926       25.7237899861
atom         4.2235600000        0.1117400000        2.1376300000 C         0.0000000000         0.0000000000        67.8393453852      -57.5479744787      -48.5541700162
atom         2.3062200000        1.1655600000        3.1909300000 C         0.0000000000         0.0000000000       -95.4195194003        5.9689959578       80.4713303645
atom         4.0893600000        2.5356700000        2.2847800000 C         0.0000000000         0.0000000000         8.9854964941       95.0550221958      -65.4003997663
atom        -0.0101600000        5.8955200000        7.9835000000 C         0.0000000000         0.0000000000       -38.1330586827       80.8023331219       48.7340438441
atom         2.2205000000        5.0571500000        7.4119700000 C         0.0000000000         0.0000000000        68.8138513141       12.3272423497     -107.9061893704
atom         0.6106900000        3.6269700000        8.5876800000 C         0.0000000000         0.0000000000         6.8309934865      -66.5067897488       90.7969509821
atom         6.3636500000        1.5145100000        2.9684800000 N         0.0000000000         0.0000000000        41.4940106878       27.9759606935      -24.3690172976
atom        -3.6720800000        8.7169500000        2.6669000000 N         0.0000000000         0.0000000000       -31.5213100173      -26.5455436519       35.5442215207
atom         1.6854800000        3.5798000000        2.4002700000 N         0.0000000000         0.0000000000       -56.3109721034       75.2275668168      -10.3254992659
atom        -1.7842000000        4.0473400000        7.7267800000 N         0.0000000000         0.0000000000       -50.2968095112       -9.2930759130       19.8934749106
atom         7.9914700000       -2.6559500000        8.2363300000 N         0.0000000000         0.0000000000        49.8326666769        6.2470990858       -4.0568154351
atom         2.9631200000        2.6426000000        8.0191000000 N         0.0000000000         0.0000000000        17.8687705366      -61.7765729460       -6.3292039061
atom        -0.9511100000        9.2856100000        1.4664500000 N         0.0000000000         0.0000000000      -101.7406515448      141.4143349744      125.4683229599
atom         1.2964000000        1.1262300000        4.1304000000 N         0.0000000000         0.0000000000       155.1938007293        1.7755886576     -171.4771250643
atom         4.5787800000        3.7034100000        1.7276900000 N         0.0000000000         0.0000000000       -47.7603841314     -199.9971502400       93.2653230084
atom        -0.9410600000        6.9275300000        8.1556200000 N         0.0000000000         0.0000000000       174.5929735270     -170.0078152159      -29.0539186420
atom         3.2157600000        5.2789600000        6.4516100000 N         0.0000000000         0.0000000000      -173.5769881226      -17.2723213269      154.7942830652
atom         0.3327800000        2.6792000000        9.5582800000 N         0.0000000000         0.0000000000        55.3253559686      122.9031688214     -147.9359334704
atom         6.6799100000        2.6427600000        3.3208800000 O         0.0000000000         0.0000000000       -70.6813577505     -258.3300249136      -75.8004451615
atom         7.0683500000        0.5324300000        2.9959400000 O         0.0000000000         0.0000000000      -156.7859366633      211.4189666526       -1.4263875601
atom        -3.5564300000        7.9783400000        1.7061600000 O         0.0000000000         0.0000000000       -19.7297009208      171.5417284200      221.2442821677
atom        -4.3250900000        8.4886600000        3.6993400000 O         0.0000000000         0.0000000000       148.1424956990       50.0096957744     -245.3860140695
atom         0.9430700000        3.9865300000        3.2945900000 O         0.0000000000         0.0000000000       170.6154752372     -108.6228397240     -198.4061311264
atom         1.6425600000        4.0595700000        1.2599000000 O         0.0000000000         0.0000000000        26.4823025355     -117.7119093385      260.4536983622
atom        -2.1063300000        2.8714000000        8.0160800000 O         0.0000000000         0.0000000000        75.4825568272      276.8110871962      -73.3444501262
atom        -2.4778100000        4.8731500000        7.1279700000 O         0.0000000000         0.0000000000       160.0622523226     -197.5503642893      139.7740091277
atom         7.5070700000       -2.0076500000        9.1394100000 O         0.0000000000         0.0000000000       109.8444771035     -142.9423949378     -210.6866205741
atom         9.1028100000       -2.4770100000        7.6774700000 O         0.0000000000         0.0000000000      -262.6999819667      -31.6738818401      138.2413085510
atom         3.5509300000        2.4322400000        6.9698500000 O         0.0000000000         0.0000000000      -127.8539879875       55.4665760951      241.4089257222
atom         3.0942600000        1.9446900000        9.0601400000 O         0.0000000000         0.0000000000       -38.2657555552      172.0955496200     -245.6365248481
atom         0.0464900000        9.3572900000        1.3900600000 H         0.0000000000         0.0000000000       -71.6785591228       -7.4853153043        2.9427411495
atom        -1.3854100000        8.4161800000        1.2436000000 H         0.0000000000         0.0000000000        32.3725155756       52.7324119993       19.1066179488
atom         1.3084600000        0.3467900000        4.7420500000 H         0.0000000000         0.0000000000       -21.1601546541       41.0535368579      -41.0107057350
atom         0.5553500000        1.8083900000        4.0814300000 H         0.0000000000         0.0000000000        54.6262435168      -46.9074943375       18.7963363188
atom         3.9667300000        4.3678600000        1.3414000000 H         0.0000000000         0.0000000000        34.7927114265      -32.8839253016       19.8820658870
atom         5.5674600000        3.7178900000        1.5086400000 H         0.0000000000         0.0000000000       -82.4276238727        5.0168391095       10.8128427235
atom        -1.8802200000        6.6769000000        8.1728800000 H         0.0000000000         0.0000000000        36.4082469795       15.5729064529       10.2600606481
atom         5.2552500000       -2.3913400000        8.5790200000 H         0.0000000000         0.0000000000       -28.4526676070      -44.8782847115      -23.7583758356
atom         3.1201800000        6.2035500000        6.0457400000 H         0.0000000000         0.0000000000        21.1046568122      -76.2587651643       26.6635064914
atom         3.7657200000        4.5572500000        6.0118400000 H         0.0000000000         0.0000000000       -43.3937970279       52.0950110022       32.0333280614
atom         1.0024400000        2.2574100000       10.1669500000 H         0.0000000000         0.0000000000       -36.2834568146       25.6218649000      -55.5790395029
atom        -0.5477500000        2.2705400000        9.6794900000 H         0.0000000000         0.0000000000        37.8338402798       30.1088268600       -8.0532271741
energy    -10441.0726115567
charge 0
end
begin
comment generated by PY
lattice        10.1957354610         0.0000000000         0.0000000000
lattice        -5.6270573360         9.7561002620         0.0000000000
lattice        -0.0820984700        -4.2259352170        10.9269941010
atom         4.6393400000        1.4931100000        2.4943900000 C         0.0000000000         0.0000000000        49.9155244025       46.8875317555       43.9338138560
atom         2.7012600000        0.2173500000        2.8366800000 C         0.0000000000         0.0000000000       -43.3326887367      -30.2165988421       -7.3162224306
atom         2.5113600000        2.5269800000        2.2940000000 C         0.0000000000         0.0000000000       -36.3285917463        9.1453590933      -44.6804521358
atom        -0.1274300000        3.7191800000        8.4091800000 C         0.0000000000         0.0000000000       -11.7303903158        4.8461646485      -48.6273835880
atom         1.4895800000        5.4906400000        8.3864400000 C         0.0000000000         0.0000000000        53.4470610471       43.3590549775       21.9603362341
atom         2.2057500000        3.2109200000        8.2144200000 C         0.0000000000         0.0000000000        27.7759892914      -27.8722543292       27.3370074211
atom         4.0469200000        0.2350800000        2.4438600000 C         0.0000000000         0.0000000000        19.6852518269      -97.4221751098      -38.2879879187
atom         1.9766000000        1.4085800000        2.9411800000 C         0.0000000000         0.0000000000       -44.2127968608       38.7438217599      136.5254212930
atom         3.9186700000        2.6777400000        2.2069200000 C         0.0000000000         0.0000000000        16.3186064160       90.5587637240       43.3587407742
atom         0.1763100000        5.1132900000        8.6446600000 C         0.0000000000         0.0000000000       -75.3837729856       64.5965865828       19.6400280434
atom         2.3718100000        4.5523600000        7.8256600000 C         0.0000000000         0.0000000000        83.8787532678       -7.4241581255     -105.1957113958
atom         0.9142700000        2.7295400000        8.5164500000 C         0.0000000000         0.0000000000       -52.2316514818      -87.8733659964      -20.4223344917
atom         6.0777800000        1.6623500000        3.1748100000 N         0.0000000000         0.0000000000        48.2811214814        7.1945456770       47.3059574281
atom         1.8769100000       -1.1164600000        3.1248800000 N         0.0000000000         0.0000000000       -51.8880042770      -40.8331745421       54.1262917792
atom         1.4070600000        3.4224700000        1.5377100000 N         0.0000000000         0.0000000000       -44.8625607781       16.3941763978        0.0012378527
atom        -1.5100300000        3.3461500000        7.6421900000 N         0.0000000000         0.0000000000       -19.0686953241       11.6243580697      -14.2943658851
atom         7.7993200000       -2.9258400000        8.7977000000 N         0.0000000000         0.0000000000        30.1814208401       24.4222379530       23.3861535910
atom         3.5087900000        2.3169800000        8.4655100000 N         0.0000000000         0.0000000000        31.6975089000      -34.9567827109       27.9235666963
atom        -0.9588900000        8.8528000000        2.0089600000 N         0.0000000000         0.0000000000      -103.4557765202      179.9892703051       76.6482909183
atom         0.9978000000        1.6597900000        3.9454900000 N         0.0000000000         0.0000000000       145.0522527621      -53.4874903247     -178.6473849631
atom         4.4852800000        3.9572500000        2.1399100000 N         0.0000000000         0.0000000000       -98.9299482060     -197.1197321146      -18.6471471210
atom        -0.7704500000        6.0168500000        9.0300100000 N         0.0000000000         0.0000000000       156.8909290686     -126.8364658363      -46.8127178788
atom         3.3142300000        4.8057000000        6.8393900000 N         0.0000000000         0.0000000000      -161.5905237527      -52.1971055814      191.9747952610
atom         0.5541900000        1.4023200000        8.6833600000 N         0.0000000000         0.0000000000        36.3022578495      200.2066756038       12.7940589108
atom         6.6264200000        2.7597900000        3.2028600000 O         0.0000000000         0.0000000000      -133.6242214570     -246.9955586029      -15.6965818324
atom         6.5164200000        0.6821400000        3.7474300000 O         0.0000000000         0.0000000000      -100.6500303283      207.8448925363     -132.9045095782
atom        -3.2736300000        7.5572900000        2.9227000000 O         0.0000000000         0.0000000000       -94.0848481790      243.3063665275       32.9842925163
atom         0.7462500000       -0.9635800000        3.6479300000 O         0.0000000000         0.0000000000       262.5619801144      -26.7110749489     -121.6204410657
atom         0.2599000000        2.9136500000        1.5275700000 O         0.0000000000         0.0000000000       273.2521956487      131.5287800243       -4.3917175371
atom         1.7446400000        4.5087000000        1.0333600000 O         0.0000000000         0.0000000000       -79.6968857496     -256.7500374137      113.9536517799
atom        -1.7340200000        2.1581200000        7.4512600000 O         0.0000000000         0.0000000000        42.2711075393      285.1729905799       38.3137564421
atom        -2.1669800000        4.3543000000        7.2730200000 O         0.0000000000         0.0000000000       145.8956972299     -250.4817469142       83.9316265494
atom         7.1905200000       -2.1518600000        9.5560000000 O         0.0000000000         0.0000000000       135.8627311446     -179.4280645623     -178.9861042310
atom         8.9738900000       -2.7580800000        8.4064700000 O         0.0000000000         0.0000000000      -276.9200104619      -35.0586270297       89.7422416119
atom         4.6133000000        2.7729100000        8.1858800000 O         0.0000000000         0.0000000000      -262.6134746562     -111.9635525749       64.5173892791
atom         3.2878300000        1.1989600000        9.0219700000 O         0.0000000000         0.0000000000        53.6503668827      263.3413061097     -132.2399980616
atom         0.0210600000        8.7650000000        2.1064200000 H         0.0000000000         0.0000000000       -57.0440384103        2.5240135917      -16.2358238946
atom        -1.4956400000        8.1627700000        1.5236800000 H         0.0000000000         0.0000000000        42.8007031600       41.4015258521       44.8079662096
atom         0.5669300000        0.9587800000        4.5190600000 H         0.0000000000         0.0000000000        25.2888140385       43.6732869382      -48.7125021334
atom         0.5844300000        2.5503300000        3.9155300000 H         0.0000000000         0.0000000000        16.2753012702      -47.5474974517        4.2727663866
atom         3.9089000000        4.7193500000        1.8321900000 H         0.0000000000         0.0000000000        38.2759659976      -58.8925157965       17.2743096294
atom         5.4327500000        4.0359500000        1.8922300000 H         0.0000000000         0.0000000000       -49.4076517968       -4.5833931221       12.0740799790
atom        -1.6987200000        5.7220300000        9.2119500000 H         0.0000000000         0.0000000000        60.5172129710       18.7830178867      -10.3255240460
atom         5.1267300000       -2.8145600000        9.3638200000 H         0.0000000000         0.0000000000       -19.2467796710      -77.7524724153      -26.8181603918
atom         3.5731600000        5.7213800000        6.6117500000 H         0.0000000000         0.0000000000        -7.0258310112      -43.1163426975        8.7972556892
atom         3.7688500000        4.0304100000        6.4211000000 H         0.0000000000         0.0000000000       -20.0687847818       51.6858049626       26.2452125118
atom         1.1559900000        0.7828800000        9.1649500000 H         0.0000000000         0.0000000000       -25.4120948529       41.4120610387      -31.7778653326
atom        -0.3925800000        1.1841200000        8.9568900000 H         0.0000000000         0.0000000000        72.7308953117       26.8764831867      -21.1887396701
energy    -10454.4334515178
charge 0
end
begin
comment generated by PY
lattice        11.0361742540         0.0000000000         0.0000000000
lattice        -5.3028801610         9.1940471610         0.0000000000
lattice        -0.0780425420        -4.0171604810        10.3871655910
atom         4.8407600000        1.3415900000        2.5154700000 C         0.0000000000         0.0000000000        13.6187793332       32.2229416066       29.8343090085
atom         2.8268300000        0.0698400000        2.8019500000 C         0.0000000000         0.0000000000       -16.4943350660      -18.0165374255       -2.0116485473
atom         2.7126600000        2.4343600000        2.3091900000 C         0.0000000000         0.0000000000       -12.3042591594       45.1786517909        4.0922772612
atom         0.7941000000        3.5740000000        7.8336800000 C         0.0000000000         0.0000000000       -51.2919955937       22.9331194679      -13.2084100094
atom         2.6086200000        5.1611100000        7.8128300000 C         0.0000000000         0.0000000000        13.1349195581      -12.4679395953       35.2636838755
atom         3.0423700000        2.7524000000        7.5049300000 C         0.0000000000         0.0000000000         1.2633206756       -2.4743145077       14.5789259965
atom         4.1873700000        0.1035700000        2.5104600000 C         0.0000000000         0.0000000000        78.2611879879     -105.1017098975      -37.0925551123
atom         2.0907300000        1.2936200000        2.7895700000 C         0.0000000000         0.0000000000      -103.6263247571       -1.2916812688       95.7991226930
atom         4.0723300000        2.4885700000        2.1639700000 C         0.0000000000         0.0000000000        92.5373765607       65.4483510745      -72.6854576072
atom         1.2329900000        4.8784800000        8.1005700000 C         0.0000000000         0.0000000000       -57.3557827956      109.4317518475      -16.7757252465
atom         3.3882900000        4.1057400000        7.2697300000 C         0.0000000000         0.0000000000        94.7336114083       45.1881103352      -81.6290340547
atom         1.6878200000        2.4754500000        7.8148900000 C         0.0000000000         0.0000000000       -14.0006816601     -106.7159855137       22.7728201861
atom         6.3354000000        1.5859000000        3.0526800000 N         0.0000000000         0.0000000000        45.1055936819       22.1398604688       -4.3743218257
atom        -3.1017500000        7.8201300000        3.1635400000 N         0.0000000000         0.0000000000        -2.2130937254      -58.5081242829       26.3648567164
atom         1.8672100000        3.7934300000        2.1041600000 N         0.0000000000         0.0000000000       -34.5136304126       54.3988037159       42.6515795257
atom        -0.7677500000        3.4455900000        7.4786000000 N         0.0000000000         0.0000000000       -90.9330682397       20.5657441974      -29.2044419559
atom         8.6635900000       -2.7074100000        8.3290200000 N         0.0000000000         0.0000000000        10.4386161900       62.9353660619       -1.4495171184
atom         4.1768400000        1.6086800000        7.4406500000 N         0.0000000000         0.0000000000        26.3406447717      -31.2922004741      -12.5143153246
atom        -0.4077700000        8.1556400000        2.1711500000 N         0.0000000000         0.0000000000      -104.7812021660      197.8883981380       63.7801502951
atom         0.8542300000        1.3694800000        3.4455700000 N         0.0000000000         0.0000000000       210.8144297147      -54.6463952691     -112.3187151795
atom         4.7739800000        3.5318600000        1.5116800000 N         0.0000000000         0.0000000000      -111.3930392824     -155.3878616520      113.5559522464
atom         0.3707900000        5.9244000000        8.3858200000 N         0.0000000000         0.0000000000       125.3393293566     -156.6844390776      -24.6480918109
atom         4.4307000000        4.4517900000        6.4358600000 N         0.0000000000         0.0000000000      -153.4306164312      -81.0686665052      152.8726173360
atom         1.2635400000        1.1846200000        8.0903400000 N         0.0000000000         0.0000000000        70.3907968975      203.4929149266      -37.8862707329
atom         6.5388500000        2.7403000000        3.5016600000 O         0.0000000000         0.0000000000       -41.3529648618     -279.1234231269     -105.5959549747