begin
comment generated by PY
lattice        12.0000000000         0.0000000000         0.0000000000
lattice         0.0000000000        12.0000000000         0.0000000000
lattice         0.0000000000         0.0000000000        12.0000000000
atom         7.5437700000        0.2939200000        8.7173600000 H         0.0000000000         0.0000000000        -2.5593518606       -1.0861518114        1.0392235962
atom         7.2670200000       11.0971000000        9.8497200000 H         0.0000000000         0.0000000000        -1.8686423265        0.8960175930       -2.1848255003
atom         8.8886800000        0.2554600000       10.2481000000 H         0.0000000000         0.0000000000         5.3223052995        4.5346953427        2.6841094253
atom        10.2262000000       11.7430000000       10.8231000000 H         0.0000000000         0.0000000000        -5.3881431641        2.7423834301       -2.5127003719
atom         1.8728500000        3.0105200000        5.5573500000 H         0.0000000000         0.0000000000         1.4445819091        0.2657958764       -0.6470789772
atom         2.3604100000        4.2805700000        4.8509500000 H         0.0000000000         0.0000000000         0.7006486303       -2.1430167268        2.5817667132
atom         6.3467300000        9.1359700000       11.0492000000 H         0.0000000000         0.0000000000        -1.8470576536        2.7407000101        1.3301324093
atom         6.4867200000       10.5067000000       11.8022000000 H         0.0000000000         0.0000000000         2.7141342588       -2.5855947642        1.0727305724
atom         3.4079800000        5.9124000000       10.4777000000 H         0.0000000000         0.0000000000        -0.3537718671       -1.7816348789       -2.7035033462
atom         3.6888500000        4.9290300000        9.2934900000 H         0.0000000000         0.0000000000        -0.9563209261        7.6616364715        4.1961664979
atom         7.1258500000        2.3377100000        8.1381400000 H         0.0000000000         0.0000000000         0.4655002222        2.5372367950       -6.1218836808
atom         7.5006600000        1.5439600000        6.8127300000 H         0.0000000000         0.0000000000         0.6354795216        6.3717216579       -4.2098414029
atom         0.0013100000       10.8557000000       10.5472000000 H         0.0000000000         0.0000000000         4.6090656101        5.1564307777        0.5315686922
atom        11.6899000000        9.3924300000       10.1055000000 H         0.0000000000         0.0000000000         0.2188907217        2.7648674645        1.5694086555
atom         5.5979600000        6.3272600000        3.8724100000 H         0.0000000000         0.0000000000         1.6537872007        4.6103800613        3.9640620822
atom         6.9198600000        6.1125100000        4.6603000000 H         0.0000000000         0.0000000000        -2.7907183388        3.9333454322       -0.2016183713
atom         0.9897600000        1.2872800000       11.5159000000 H         0.0000000000         0.0000000000         0.7631427154       -2.2784513252       -0.7899851932
atom        11.4434000000        1.1351100000       11.3672000000 H         0.0000000000         0.0000000000        -2.2385796377       -3.0147054416       -4.8633773336
atom         8.1558600000        6.5685900000        6.6383900000 H         0.0000000000         0.0000000000        -2.3124425730        2.8461097751        0.5578115959
atom         8.7639900000        7.7473700000        5.8508000000 H         0.0000000000         0.0000000000         1.0879044130        1.9220274952       -1.9360252478
atom         2.8813100000        0.6198400000        4.0474600000 C         0.0000000000         0.0000000000         5.7256342843        0.9262499715        1.8479800755
atom         1.9298200000        9.7219200000        5.7908900000 C         0.0000000000         0.0000000000         1.4821014207        0.1288854028       -2.1144216472
atom         5.0674600000        3.9719600000        2.6630800000 C         0.0000000000         0.0000000000         2.7365952326        3.4034832206        1.8762061863
atom         1.8981100000        7.7710200000        8.9128000000 C         0.0000000000         0.0000000000         5.8574483767        0.0381190859        0.2111423776
atom         6.1307700000        3.9905700000       10.0529000000 C         0.0000000000         0.0000000000        -1.6194961658       -1.2350537699        9.1185327133
atom         1.1357200000        2.0352600000        2.6202900000 C         0.0000000000         0.0000000000         0.8693826601       -3.6189609812       -7.4899276310
atom         9.4450500000        3.0138300000       10.5341000000 C         0.0000000000         0.0000000000         0.2803240216      -14.5637507337       -0.9422309312
atom        10.6190000000        2.7205300000        1.7350400000 C         0.0000000000         0.0000000000        -3.8699058646       -0.4405717698        2.7810559692
atom        10.5869000000        6.3850000000        9.9909700000 C         0.0000000000         0.0000000000        -2.7705403593       -1.8548059977       -0.6499384852
atom         5.3311100000       10.5003000000        2.9205000000 C         0.0000000000         0.0000000000        -2.3384087501        4.3455527279       -2.9189349857
atom         7.9198200000       11.6826000000        9.4032000000 O         0.0000000000         0.0000000000        -4.8332602578       -8.8535208955       -6.2572260370
atom         9.6911900000        0.5653100000       10.8146000000 O         0.0000000000         0.0000000000         6.0306100317       -6.5526777782       10.2204118184
atom         2.0365000000        3.9549200000        5.7098700000 O         0.0000000000         0.0000000000        -5.4387841276        4.0840230529        1.1045541287
atom         6.5564600000       10.0801000000       10.9318000000 O         0.0000000000         0.0000000000        -4.7070498786        6.7286758806        6.3218878137
atom         4.0230800000        5.2294500000       10.1640000000 O         0.0000000000         0.0000000000         1.9710311597        9.2698790899        6.6009896263
atom         7.2164100000        1.4598900000        7.7321600000 O         0.0000000000         0.0000000000        -4.5728144286       -3.4500885881       -1.4250957460
atom        11.2875000000       10.2674000000       10.2348000000 O         0.0000000000         0.0000000000        -1.2641561815       -4.7388273137        2.6685666160
atom         6.1796400000        5.6358300000        4.2240900000 O         0.0000000000         0.0000000000         4.7245989556        0.9989368188        1.1408975523
atom         0.2969600000        0.6806100000       11.2112000000 O         0.0000000000         0.0000000000         7.9278704983        4.1452026868       -1.1392833140
atom         7.9820200000        7.1713700000        5.8911200000 O         0.0000000000         0.0000000000         1.8652293654       -0.9696268623       -4.2751719354
atom         2.4032400000       11.6829000000        3.5323500000 O         0.0000000000         0.0000000000        -1.3918193753       -0.0306935894        0.6944684034
atom         3.3394900000        1.5813400000        4.5426700000 O         0.0000000000         0.0000000000        -0.8985773138       -2.4033011322       -2.8447492028
atom         1.2413200000        9.5493100000        4.8553700000 O         0.0000000000         0.0000000000         3.9108152768        1.4688646662        2.9889929306
atom         2.6237500000        9.8901400000        6.7226900000 O         0.0000000000         0.0000000000        -0.1065397318       -1.7522096196       -4.5683406823
atom         4.1066900000        3.9654500000        3.3410500000 O         0.0000000000         0.0000000000        -1.2185424175        1.5369855250       -2.8947214103
atom         6.0021000000        3.9662000000        1.9576300000 O         0.0000000000         0.0000000000        -2.8097663514        0.8700052949        2.9004404262
atom         2.1838600000        6.6595700000        8.6652500000 O         0.0000000000         0.0000000000        -1.6021546337        4.5630367562        1.1765030385
atom         1.6361200000        8.8850400000        9.1697700000 O         0.0000000000         0.0000000000        -2.7951459640       -3.9287333226        0.6404375394
atom         6.2879400000        4.1244200000       11.2061000000 O         0.0000000000         0.0000000000         0.9255120339       -1.6779085339       -8.4210664387
atom         5.9855100000        3.8203100000        8.8957900000 O         0.0000000000         0.0000000000         4.5819233451       -2.2101229215        0.8131841045
atom         0.6609100000        2.3959700000        3.6285800000 O         0.0000000000         0.0000000000        -1.0606699058        0.1923249704        5.9097958207
atom         1.6120700000        1.6787800000        1.6131800000 O         0.0000000000         0.0000000000         0.0265888119       -1.2531101790       -0.1167094335
atom         8.4905700000        2.8459700000        9.8771100000 O         0.0000000000         0.0000000000        -1.1615828639        5.4639431854       -0.5799497220
atom        10.4074000000        3.2042800000       11.1729000000 O         0.0000000000         0.0000000000         3.8049673614        7.9217825137        3.8288119681
atom        10.5318000000        3.8569200000        2.0123800000 O         0.0000000000         0.0000000000         2.8556568420       -0.8632946754       -0.9448137126
atom        10.7381000000        1.5736800000        1.5074400000 O         0.0000000000         0.0000000000         0.9586500414        4.4213296887       -1.5702618958
atom        11.4986000000        7.1091400000        9.8307500000 O         0.0000000000         0.0000000000        -2.9140230890       -0.8330853575        1.7848172345
atom         9.6754500000        5.6670100000       10.1543000000 O         0.0000000000         0.0000000000         4.3220770901        2.7912717919       -4.7047438238
atom         5.8034900000       10.2306000000        1.8813200000 O         0.0000000000         0.0000000000         0.2824225315       -0.4993300461        1.1667023056
atom         4.8590100000       10.7892000000        3.9550900000 O         0.0000000000         0.0000000000         1.5498994319       -3.7008720477       -8.0324962047
atom         7.6746300000       10.6603000000        4.2414700000 N         0.0000000000         0.0000000000        -1.2810826237       -1.3367969077       11.3818101979
atom         7.5881200000       10.2629000000        5.2827700000 N         0.0000000000         0.0000000000         3.9813574932        6.0140294977       -6.7318121151
atom         8.2513300000        5.0025500000        0.8693200000 N         0.0000000000         0.0000000000        -0.4421398870        3.2058543241       -4.2699371910
atom         8.0484600000        6.0779200000        0.6503100000 N         0.0000000000         0.0000000000        -1.2416029655       -6.5934257665        0.9053340544
atom         5.6695100000        1.3642600000        2.8896700000 N         0.0000000000         0.0000000000         2.3268554155       -4.5946066465        6.8345007354
atom         6.2972000000        1.2168300000        3.8026000000 N         0.0000000000         0.0000000000        -3.5552908081       -1.4816632703       -4.0776814022
atom        11.0450000000        8.6290200000        7.4359500000 N         0.0000000000         0.0000000000        -0.2054925433        1.5693625344       -3.0434158239
atom        11.6500000000        9.5111500000        7.1158400000 N         0.0000000000         0.0000000000        -1.5598615886       -8.5473921207        5.3043872537
atom         4.8536300000        3.9580400000        6.1491700000 N         0.0000000000         0.0000000000         0.9184785668       -1.5225265614       -2.0579463651
atom         5.3038600000        2.9534100000        5.9671900000 N         0.0000000000         0.0000000000         1.4602400212        0.7323107627        0.9049881462
atom        10.7819000000        9.4260800000        3.5073100000 N         0.0000000000         0.0000000000        -7.1075376239        1.9789870488       11.2375434096
atom        10.3145000000        9.6175200000        4.5052600000 N         0.0000000000         0.0000000000         6.9137828995       -4.8441909576       -7.7296189671
atom        11.9143000000        2.2644400000        8.6236100000 N         0.0000000000         0.0000000000         0.0173645927        1.2048905731        0.6298296873
atom        10.9430000000        2.3103100000        8.0751100000 N         0.0000000000         0.0000000000         1.4407307976        1.1694695713        6.2863745697
atom         1.1667300000        5.2063000000        1.7232600000 N         0.0000000000         0.0000000000         5.3514077111      -10.7499511824        2.2849313392
atom         1.8497600000        4.3287600000        1.8254100000 N         0.0000000000         0.0000000000        -3.4011310447       13.6688631076        0.5826478061
atom         8.0027900000        1.8888300000        1.4482400000 N         0.0000000000         0.0000000000        -1.6049680205        1.6634726309       -3.7225950839
atom         7.4402500000        1.8819800000        0.4851100000 N         0.0000000000         0.0000000000         2.8649271823       -1.3445221913        0.1951614178
atom         7.3122300000        8.1040300000        2.6687700000 N         0.0000000000         0.0000000000         2.8263930066        0.8715042305       -0.6422593227
atom         8.2971400000        8.5178400000        2.3417300000 N         0.0000000000         0.0000000000        -9.8445940674       -4.8516625752        1.9285075092
atom         1.6401200000        7.2045700000       11.7758000000 N         0.0000000000         0.0000000000         0.1591177813        6.6983281994        5.0913539112
atom         1.3694800000        7.8369900000        0.6566800000 N         0.0000000000         0.0000000000        -2.0072131595       -5.9041229259      -11.1662171346
atom         0.7646200000        4.5943100000       11.0039000000 N         0.0000000000         0.0000000000         1.5821150175       -4.1804853253       -4.5458335874
atom         1.1418900000        4.4296100000        9.9660700000 N         0.0000000000         0.0000000000        -5.3520072854        2.2701264674        5.7484642268
atom         5.1216600000        6.7501200000        7.9077100000 N         0.0000000000         0.0000000000        -0.6246871851       -6.5897591394       -5.4578782613
atom         5.8720300000        6.1497200000        7.3393100000 N         0.0000000000         0.0000000000        -1.6812984345        2.6525164745        3.0858241717
atom         4.4582400000        9.1726100000        9.0682600000 N         0.0000000000         0.0000000000        -0.4989841379        8.8641979293       -4.9958371213
atom         4.7058100000       10.1910000000        8.6832800000 N         0.0000000000         0.0000000000         1.4695103615       -9.1347212180        7.4485800684
atom         0.4805300000        7.2902800000        3.4585500000 N         0.0000000000         0.0000000000         6.6912255506       -5.1681455361        5.3091146661
atom         0.6924100000        6.4595000000        4.1748300000 N         0.0000000000         0.0000000000         0.7935365176        2.3801483420       -4.3480202066
atom         3.0177300000        9.0919500000        2.5170400000 N         0.0000000000         0.0000000000         0.5594719553       -4.8450441979        5.7523153383
atom         3.1058400000        8.1765100000        3.1511000000 N         0.0000000000         0.0000000000         2.4556716367        4.5218967386       -3.5446368349
atom        10.4387000000        0.4537500000        4.1250200000 N         0.0000000000         0.0000000000        -8.3781738194        5.2264887226       -0.5354198037
atom         9.4065200000        0.8801700000        4.1701900000 N         0.0000000000         0.0000000000         8.8453344010       -5.1536173908        0.6797557738
atom         5.2544200000        8.9065000000        6.1012200000 N         0.0000000000         0.0000000000         2.0959040272       -3.8514574262       -8.3813792355
atom         5.3641400000        8.4535900000        5.0858000000 N         0.0000000000         0.0000000000        -0.1651365843        0.1431829426        8.3706560807
atom         4.0485600000        2.7066000000        0.4476300000 N         0.0000000000         0.0000000000        -2.3450271273        6.8852800622       -3.6911174359
atom         3.3648800000        3.0501400000       11.6345000000 N         0.0000000000         0.0000000000        -1.5616603114       -2.3751442031        2.4405900383
atom        10.6903000000        7.2372700000        1.2854900000 N         0.0000000000         0.0000000000         4.9703321552       -5.6546769780      -10.2594302656
atom        10.8970000000        6.3799600000        0.5979200000 N         0.0000000000         0.0000000000        -2.3088220670        8.5023087493        9.2083535478
atom         9.3020100000        5.9701300000        3.3293500000 N         0.0000000000         0.0000000000         1.9339036774        3.1714249259        7.3180573667
atom         9.9442700000        6.7062600000        3.8693300000 N         0.0000000000         0.0000000000       -13.3866711816       -7.9897650092        6.1552292332
atom         8.1439400000        3.4887700000        3.8405000000 N         0.0000000000         0.0000000000        -3.1698798692        1.0820700944        5.9280597747
atom         7.8808900000        3.2240300000        4.8932800000 N         0.0000000000         0.0000000000         0.5294932429        3.8137995513       -4.5156473301
atom         2.3436600000       11.6940000000        9.1802000000 N         0.0000000000         0.0000000000        -5.0075057586       -0.1779813096        0.3498285133
atom         1.3751700000       11.7527000000        8.6286500000 N         0.0000000000         0.0000000000         3.7657644298       -0.7699916981        5.0496143193
atom         9.0299200000        8.3854400000       10.6030000000 N         0.0000000000         0.0000000000         5.0934524211        7.8734937261        8.7373649152
atom         9.2019700000        8.8373200000       11.6097000000 N         0.0000000000         0.0000000000        -1.5007112830       -0.4975313234       -8.6449612993
atom         3.2325700000        3.5537500000        8.2687400000 N         0.0000000000         0.0000000000        -4.0483022641       -3.5128132787       -3.5592341618
atom         2.8396800000        2.5727700000        8.6235800000 N         0.0000000000         0.0000000000        -2.2261961234       -5.0885405243       -5.4952594096
atom        10.2963000000       11.7724000000        7.7518600000 N         0.0000000000         0.0000000000        -6.5759689317       -2.2643613304       -0.7502749296
atom         9.6760600000       11.5436000000        6.8517300000 N         0.0000000000         0.0000000000        -3.4868701622        4.5389384836        5.2552452259
atom         3.2884200000        0.1533300000        0.0093400000 N         0.0000000000         0.0000000000         0.0253666028       -4.9333660968        9.6601788650
atom         3.6930400000       11.8453000000        1.0037500000 N         0.0000000000         0.0000000000        -0.9914652012        5.1487746758       -6.5810883733
atom         4.8604100000        1.0400200000        9.6355700000 N         0.0000000000         0.0000000000         7.6440412734        0.1145648025       -0.4864161392
atom         5.4739100000        1.0325200000       10.5688000000 N         0.0000000000         0.0000000000         0.8496197704       -4.5492234880       -4.5214816487
atom         5.1832700000       11.9382000000        6.3915400000 N         0.0000000000         0.0000000000        -4.4959305615        3.4856018320        6.1551600515
atom         4.2302100000        0.2693900000        6.8720300000 N         0.0000000000         0.0000000000         6.7916542372        0.3043992338       -5.9409736816
atom         7.3061800000        8.8666000000        8.2881800000 N         0.0000000000         0.0000000000         4.0105290864        2.8717761650       -4.7490431365
atom         8.3020600000        9.2636000000        7.9793800000 N         0.0000000000         0.0000000000        -3.0689899716       -1.6998852362       -0.4319701854
atom         1.2358800000        0.3041800000        5.9583400000 N         0.0000000000         0.0000000000       -10.3362910722        5.7619085263        3.8716123452
atom         0.2244800000        0.7621500000        6.0803600000 N         0.0000000000         0.0000000000        10.9022661020        0.8898604267       -3.9600264863
atom         5.1552300000        6.6392700000        1.1469100000 N         0.0000000000         0.0000000000         0.5005061341       -1.3210465534        0.9935406506
atom         4.0716600000        6.3844300000        1.2289800000 N         0.0000000000         0.0000000000         2.7141573194       -4.4550442099       -1.5637127002
atom         3.4069600000        6.5936700000        5.6401400000 N         0.0000000000         0.0000000000        -7.2693304287       -4.1772568486       -1.2125697356
atom         2.4968700000        7.1131000000        6.0254800000 N         0.0000000000         0.0000000000         7.5665117110       -3.0746628664       -1.0009892076
atom         6.2566700000        7.3569500000       10.5989000000 N         0.0000000000         0.0000000000         7.0562279046      -12.5947489023       -5.1032762145
atom         6.9508900000        6.6738500000       10.0508000000 N         0.0000000000         0.0000000000       -10.3368445253        4.2217637062        7.5365329986
atom         0.0443700000        5.9926600000        6.9976500000 N         0.0000000000         0.0000000000        -3.2929078928       -3.3322722483        0.8146599796
atom        11.5612000000        5.1824600000        7.5944200000 N         0.0000000000         0.0000000000         4.8091850457        5.0547568215       -0.1970293222
atom         0.1795300000       11.0931000000        1.9921300000 N         0.0000000000         0.0000000000         5.0370001995        0.7371073567       -2.7745528946
atom         0.8883900000       10.7207000000        1.2149000000 N         0.0000000000         0.0000000000        -5.5626884520       -3.7612906835       -1.4634454374
atom         9.3648300000       11.1307000000        1.8048400000 N         0.0000000000         0.0000000000        -5.0795699712       -0.2466325610       -6.8609050629
atom         8.5310600000       11.0964000000        1.0638500000 N         0.0000000000         0.0000000000         0.5900963631        3.1344358069        1.0317058575
atom         8.8990300000        4.1394600000        7.3529000000 N         0.0000000000         0.0000000000        -8.1145686950        2.9217022515        4.8808341684
atom         8.5045900000        5.0941200000        7.7787900000 N         0.0000000000         0.0000000000         2.6110536092       -3.7236097481       -4.7817199330
atom         4.0401800000        9.0037300000       11.8851000000 N         0.0000000000         0.0000000000        -3.6296380149        5.6529013158       -3.3584229097
atom         3.1422400000        9.5537800000       11.5116000000 N         0.0000000000         0.0000000000         6.9889141649       -4.1949904100       -2.4436801517
atom        10.6851000000        3.2495100000        5.4249300000 N         0.0000000000         0.0000000000         4.5003581867        5.9446403087       -5.6586203317
atom        10.9397000000        4.2377300000        4.9698200000 N         0.0000000000         0.0000000000         0.4865775631       -9.8199192811        2.6453215836
energy    -23823.5422207322
charge 0
end
begin
comment generated by PY
lattice        12.0000000000         0.0000000000         0.0000000000
lattice         0.0000000000        12.0000000000         0.0000000000
lattice         0.0000000000         0.0000000000        12.0000000000
atom         7.5034700000        0.2421100000        8.6587300000 H         0.0000000000         0.0000000000        -0.2630286106       -4.1868730971        0.5524846093
atom         7.2148400000       11.0976000000        9.8277600000 H         0.0000000000         0.0000000000         2.6508791756        2.4220954788       -2.6122758183
atom         8.9873600000        0.2512800000       10.2035000000 H         0.0000000000         0.0000000000        -7.8620095732       -0.6429972602        2.1487588032
atom        10.2702000000       11.6869000000       10.8016000000 H         0.0000000000         0.0000000000        -3.9280415062        0.5095228083       -0.5071475719
atom         1.7964600000        3.0762500000        5.5480300000 H         0.0000000000         0.0000000000         0.2811542014       -4.1118571344       -1.6357307916
atom         2.4182300000        4.2803100000        4.8043200000 H         0.0000000000         0.0000000000        -7.1064307176       -9.6062171826       23.2069363709
atom         6.2647300000        9.2011900000       11.0237000000 H         0.0000000000         0.0000000000        -0.5041035795        2.8092820799        1.0221126695
atom         6.7264300000       10.4836000000       11.8253000000 H         0.0000000000         0.0000000000        -1.3076022539       -8.0776718182      -16.8709355018
atom         3.3558000000        5.9366000000       10.3855000000 H         0.0000000000         0.0000000000        -3.6891803499        2.2599567657       -0.8726572579
atom         3.8524900000        5.0290900000        9.2208700000 H         0.0000000000         0.0000000000        -3.3829823934        5.9038923204       11.1320183419
atom         7.0732300000        2.1575200000        8.2003900000 H         0.0000000000         0.0000000000         0.3303192897       13.1826545133       -2.3590248800
atom         7.4694600000        1.5527800000        6.8173300000 H         0.0000000000         0.0000000000        14.3462205843       15.7206753670      -41.8780935532
atom         0.0255800000       10.9162000000       10.5153000000 H         0.0000000000         0.0000000000         1.0066851629        3.4911594241       -0.7044997418
atom        11.6887000000        9.4160600000       10.2967000000 H         0.0000000000         0.0000000000        -3.3072284932        6.0725802291       -0.8572989329
atom         5.6116600000        6.3537600000        3.7750900000 H         0.0000000000         0.0000000000        22.1160571471      -20.0072853342       20.9118353299
atom         6.9586600000        6.0205300000        4.5364400000 H         0.0000000000         0.0000000000        -1.9615071534        7.0364880755        2.0560554002
atom         1.0823000000        1.2232200000       11.5255000000 H         0.0000000000         0.0000000000        12.7351415186        6.8376600305        3.9540999254
atom        11.5403000000        1.0971300000       11.4822000000 H         0.0000000000         0.0000000000        -5.0836286276       -1.4416993406       -4.2289124761
atom         8.2105800000        6.6227600000        6.7182200000 H         0.0000000000         0.0000000000         2.1076649067        6.3193050323       -0.3777317764
atom         8.6662200000        7.8422700000        5.8069500000 H         0.0000000000         0.0000000000        -5.9077664925      -11.9303745140        5.4653498789
atom         2.8212700000        0.6183600000        4.0517400000 C         0.0000000000         0.0000000000        38.9264125893       36.4351815876       25.9306407571
atom         1.9172200000        9.7647600000        5.8297800000 C         0.0000000000         0.0000000000        -7.6615903504      -24.3147881579      -36.8810111623
atom         5.0533700000        4.0222100000        2.6620800000 C         0.0000000000         0.0000000000        54.1474120019       -4.2480988520      -27.3656064177
atom         1.9019900000        7.7347900000        8.9757800000 C         0.0000000000         0.0000000000        -7.0236433502       59.6180888674      -16.6964132744
atom         6.1981700000        4.0135500000       10.0681000000 C         0.0000000000         0.0000000000       -18.8034555463       -9.0456613816       17.6657172890
atom         1.1094400000        1.9842300000        2.5953600000 C         0.0000000000         0.0000000000        17.7227460243       14.9917083837        6.1135127018
atom         9.4397000000        2.9675000000       10.5573000000 C         0.0000000000         0.0000000000       -19.2164699612      -16.8569377492       -0.5360424385
atom        10.6221000000        2.7041100000        1.7348700000 C         0.0000000000         0.0000000000        -0.0799047989      -14.3402017813       -3.5587729509
atom        10.6142000000        6.3444600000        9.9761800000 C         0.0000000000         0.0000000000        -8.3775742451       11.8777042224       -2.7260796227
atom         5.2742200000       10.5127000000        2.9301800000 C         0.0000000000         0.0000000000        46.7040897384      -23.6976187115      -89.0851107832
atom         7.8785900000       11.6685000000        9.3739400000 O         0.0000000000         0.0000000000         2.1632638879       -5.8844061573       -2.2600028868
atom         9.7103200000        0.4906600000       10.8647000000 O         0.0000000000         0.0000000000         8.8638289605       -2.3168932588        6.4705361062