begin
comment generated by PY
lattice        12.0000000000         0.0000000000         0.0000000000
lattice         0.0000000000        12.0000000000         0.0000000000
lattice         0.0000000000         0.0000000000        12.0000000000
atom         9.2023000000        3.2883100000        8.5934500000 H         0.0000000000         0.0000000000       106.4478794829      -33.3968276597      -18.5927624603
atom        10.7284000000        3.5712000000        8.2415800000 H         0.0000000000         0.0000000000       -86.2826564917      -78.8427836231       21.5063883954
atom         7.0972000000        9.1311700000       10.1132000000 H         0.0000000000         0.0000000000         7.3659489179       97.2558346423      -63.1332751958
atom         6.3972600000       10.3301000000        9.3700800000 H         0.0000000000         0.0000000000        87.6298492935      -58.1194078341       33.8832838012
atom         7.4505400000        7.4192900000        1.5352500000 H         0.0000000000         0.0000000000        79.0011338528      -63.2334870865       60.3067603762
atom         8.6951700000        7.4299200000        2.4794300000 H         0.0000000000         0.0000000000       -90.0703749037      -65.4185424355      -66.8869944921
atom         5.9597000000        2.0637500000        1.3128800000 H         0.0000000000         0.0000000000       -97.0929424476      -51.7128842273       27.6894197838
atom         5.0626000000        1.1612900000        2.1890300000 H         0.0000000000         0.0000000000        12.0239236068       60.1161192340     -103.4468450142
atom         9.5212700000       11.6855000000       10.5712000000 H         0.0000000000         0.0000000000        -9.9238137489     -111.3865953046       39.8911365471
atom         8.8015400000       10.3105000000       10.4565000000 H         0.0000000000         0.0000000000        75.4255299540       81.7645304088       57.4175776978
atom         4.5692600000        7.7070300000       10.6011000000 H         0.0000000000         0.0000000000        96.3808486535       31.2006346464      -58.6923806855
atom         5.4125000000        7.8237200000        9.2979600000 H         0.0000000000         0.0000000000       -14.8648503537       36.2381066557      111.9037919354
atom        11.3529000000        7.8064300000        3.0888500000 H         0.0000000000         0.0000000000       -84.5925702130       90.6058656809      -49.0954960155
atom        11.0340000000        9.2468700000        2.6116300000 H         0.0000000000         0.0000000000       -24.7637637111     -108.4557262532       19.7198533089
atom         9.9461600000        1.7270700000        7.4242800000 H         0.0000000000         0.0000000000         8.8731884513      -60.8751509036      -87.4025327986
atom        10.6407000000        0.5863600000        6.5342700000 H         0.0000000000         0.0000000000       -88.4275416532       72.3229538281       20.7979097342
atom         0.1128400000        3.7785900000        2.9948100000 H         0.0000000000         0.0000000000       115.2433699548      -17.6464406839       30.8378204867
atom         1.2558000000        3.2401200000        3.9230700000 H         0.0000000000         0.0000000000       -46.0532490072       55.7430178772      -86.7163864151
atom         7.8348300000        2.5792100000        2.3468400000 H         0.0000000000         0.0000000000       -13.0000599389      -18.0227679776     -117.8774068673
atom         7.9574000000        2.8780400000        0.7876300000 H         0.0000000000         0.0000000000       -31.3837847322      -56.0579327537       98.0981066667
atom        10.0725000000        2.8699200000        8.4175900000 O         0.0000000000         0.0000000000       -18.0645565247      108.4787754370        6.0637994264
atom         7.2652000000        9.9300600000        9.5608400000 O         0.0000000000         0.0000000000      -101.3717692010      -45.9148711145       30.2947769599
atom         8.0838300000        6.8358100000        1.9971500000 O         0.0000000000         0.0000000000        -2.1546368126      119.6622150046       10.1935063798
atom         5.0311600000        1.7209800000        1.3935400000 O         0.0000000000         0.0000000000        89.5425068172      -21.1263307111       71.2381494060
atom         9.4919800000       10.7934000000       10.9671000000 O         0.0000000000         0.0000000000       -63.7811539633       36.8524240229      -91.5255929240
atom         5.3871500000        8.0995400000       10.2334000000 O         0.0000000000         0.0000000000       -83.5005920362      -68.7320812682      -53.2000637963
atom        10.6512000000        8.3492300000        2.6835600000 O         0.0000000000         0.0000000000       114.3574544629       29.9371931086       35.7419486365
atom         9.8331700000        1.1197100000        6.6301000000 O         0.0000000000         0.0000000000        94.3250924988       -2.0847299334       58.2099729064
atom         1.0760100000        3.8204500000        3.1523500000 O         0.0000000000         0.0000000000       -80.2070375156      -55.8773254171       56.6549644543
atom         7.6385600000        2.2369100000        1.4545900000 O         0.0000000000         0.0000000000        52.7750109856       87.8071237226       18.9514964647
atom         8.6897800000       10.0626000000        3.4069100000 O         0.0000000000         0.0000000000       -19.4386654149      -34.8351212373     -180.6761695142
atom         8.3796900000        9.5334300000        1.1493600000 O         0.0000000000         0.0000000000        29.0313778369       49.6777932921      181.7335723808
atom         4.7325100000        5.9623300000        8.6802200000 O         0.0000000000         0.0000000000        68.5635390836     -166.2335244491      -72.5845315693
atom         5.6108000000        3.9675800000        7.8333800000 O         0.0000000000         0.0000000000       -74.0386313059      161.1362350958       66.8949455494
atom         8.5627600000       10.6189000000        7.0212100000 O         0.0000000000         0.0000000000         2.8902753942      121.5943901153      148.5985561793
atom         8.6052700000        0.1588200000        8.7816900000 O         0.0000000000         0.0000000000       -10.8861423826     -119.3047286841     -134.4917949488
atom         0.9044600000        6.7340600000        4.1562700000 O         0.0000000000         0.0000000000        55.0010359085     -142.6731046065      115.2588867900
atom         1.5011300000        4.9623800000        5.5646900000 O         0.0000000000         0.0000000000       -40.3592158727      147.0918911661     -105.5225831824
atom         1.2467800000        8.2040700000        2.0327600000 O         0.0000000000         0.0000000000       140.4833026635       22.1909122637     -127.4515169866
atom         2.9120500000        8.4913300000        0.4087300000 O         0.0000000000         0.0000000000      -142.1600813985      -22.3640300685      140.1199044956
atom         4.9457300000        2.3514900000        5.9672700000 O         0.0000000000         0.0000000000        90.5755624841       -9.4207567547     -170.8144121758
atom         6.1042700000        2.1727600000        3.9377400000 O         0.0000000000         0.0000000000       -95.3024204312       19.4640100421      172.0175020701
atom         6.4160300000        9.5921300000        5.5724500000 O         0.0000000000         0.0000000000        18.2164198265      -96.9968824636     -168.6606416133
atom         6.6409100000        8.4190100000        3.5606200000 O         0.0000000000         0.0000000000       -23.6206967257       96.9197373022      160.4507684818
atom         3.1710200000        3.7738300000        1.1973500000 O         0.0000000000         0.0000000000        34.0424049535      -57.1758025288      178.3531517272
atom         3.5993700000        3.0170100000        3.3685200000 O         0.0000000000         0.0000000000       -35.9717892721       61.2653756253     -162.6307773694
atom        10.2852000000        6.2078100000        0.7344000000 O         0.0000000000         0.0000000000        41.5452142679      -60.3575245944      185.4188252795
atom        10.7637000000        5.5353200000        2.9274400000 O         0.0000000000         0.0000000000       -46.4565615643       56.4568963912     -168.5374418662
atom        11.3544000000        6.6356800000        6.3300000000 O         0.0000000000         0.0000000000      -119.2394783897      -99.8036379573      114.3010699008
atom         9.8845500000        5.4839000000        7.7399800000 O         0.0000000000         0.0000000000       119.6209964661       98.3449459432     -114.9822189003
atom         7.9766800000        3.7732000000        6.6161700000 N         0.0000000000         0.0000000000       -60.6318475735     -209.3043009699      -70.3774974461
atom         7.6498000000        2.7749900000        6.2421200000 N         0.0000000000         0.0000000000        67.3294866826      201.1248318986       77.5947893948
atom         3.5670200000        1.0589000000        7.9389000000 N         0.0000000000         0.0000000000       -69.7828770293      -15.4300529952      228.7350415523
atom         3.2172000000        1.0102600000        8.9997200000 N         0.0000000000         0.0000000000        75.0484412756        6.9434067440     -222.9750167837
atom         3.0322700000        3.7829800000        8.3149800000 N         0.0000000000         0.0000000000       -44.9632666430     -122.1797274304     -189.1704895796
atom         2.7685800000        3.1595300000        7.4278500000 N         0.0000000000         0.0000000000        53.1686836495      141.0205131562      186.7560938934
atom        11.5095000000       10.6111000000        9.1380800000 N         0.0000000000         0.0000000000       -64.1592645706       49.4739687181     -211.8249517906
atom        11.2337000000       10.8617000000        8.0852100000 N         0.0000000000         0.0000000000        48.1369081248      -44.7859322631      214.0601457733
atom         3.5873200000       11.2408000000        0.4469600000 N         0.0000000000         0.0000000000       118.0869090171      121.7134705890     -160.7582392331
atom         4.1378900000       11.8051000000       11.6544000000 N         0.0000000000         0.0000000000      -112.8950498622     -114.0029596558      177.4752848762
atom         4.2149300000        2.7162800000       10.9327000000 N         0.0000000000         0.0000000000       151.1669015286      168.6675175419      -60.2450270639
atom         4.9005800000        3.5368200000       10.6075000000 N         0.0000000000         0.0000000000      -140.0483057291     -168.6922661517       66.9272417502
atom         1.5223700000        2.1188000000        5.1551900000 N         0.0000000000         0.0000000000       195.6530376882     -101.9728249450       51.4804440058
atom         2.4374000000        1.5479800000        5.4473500000 N         0.0000000000         0.0000000000      -197.4301630658      127.3943505316      -62.5606850549
atom         7.8234700000        7.9233700000       11.1331000000 N         0.0000000000         0.0000000000       135.8450738907     -159.2772710126      -65.2042958627
atom         8.5013500000        7.0890200000       10.8355000000 N         0.0000000000         0.0000000000      -140.4171712735      174.7973172299       62.9149802302
atom         2.9179700000        0.1930900000        3.0963500000 N         0.0000000000         0.0000000000      -133.8766716952      -65.1039462848      180.6513816884
atom         2.2691200000       11.8620000000        3.9458700000 N         0.0000000000         0.0000000000       143.0379255712       68.5884766741     -188.1741485395
atom         3.8666200000        6.2077400000       11.1491000000 N         0.0000000000         0.0000000000       116.2990350209      -81.9313833936      176.9407509785
atom         4.3977400000        5.7498300000        0.0182600000 N         0.0000000000         0.0000000000      -111.1837468548       96.3819989911     -179.9349503194
atom         3.5815800000        6.7791300000        2.4297200000 N         0.0000000000         0.0000000000       -96.3617597480     -177.7859641260      122.2031212671
atom         3.1854200000        5.9319100000        3.0400200000 N         0.0000000000         0.0000000000        72.1249053551      173.5426637371     -132.6186090257
atom         7.1046400000        5.2064400000        0.0087200000 N         0.0000000000         0.0000000000       187.7807468713     -141.2817984643       38.0849039004
atom         7.9834400000        4.5337500000        0.1602800000 N         0.0000000000         0.0000000000      -185.9970218173      128.5092375575      -24.0380089293
atom        11.0234000000        7.4871200000        9.5763700000 N         0.0000000000         0.0000000000        37.4622418165       88.8286687581     -211.0736654319
atom        11.2161000000        7.9357300000        8.5714200000 N         0.0000000000         0.0000000000       -44.2312904346      -94.0367086830      209.2187319247
atom        10.3623000000        3.2228200000        1.3741600000 N         0.0000000000         0.0000000000        90.7621704114      -99.4182166918      189.7019036818
atom        10.8168000000        2.7342800000        2.2706800000 N         0.0000000000         0.0000000000       -88.7031438837      109.2529775565     -182.7658815684
atom         0.1057800000       10.6926000000        2.5683100000 N         0.0000000000         0.0000000000       161.0900265432       20.5452218833     -166.4446457070
atom         0.9075100000       10.8655000000        1.8069100000 N         0.0000000000         0.0000000000      -173.9462341871      -46.2823090612      165.2450041582
atom        10.8465000000        8.7613800000       11.8032000000 N         0.0000000000         0.0000000000       192.1384815918      114.2203541500        0.5498007199
atom        11.8190000000        9.3059400000       11.7900000000 N         0.0000000000         0.0000000000      -193.7317320918     -112.7558505890        8.4780763509
atom         7.9232500000        4.1369000000        9.4201700000 N         0.0000000000         0.0000000000       -72.9258216618      214.2096811001      -58.9223364234
atom         7.5216600000        5.1558800000        9.1945800000 N         0.0000000000         0.0000000000        83.2846503421     -220.1677864498       47.2274853267
atom         4.5778200000       10.6895000000        9.1377500000 N         0.0000000000         0.0000000000      -148.4890159130      -74.1004122941      158.9178872071
atom         3.7996100000       10.3678000000        9.8731900000 N         0.0000000000         0.0000000000       171.1480603361       55.7030077224     -162.2609944119
atom        10.9919000000        3.7717600000        5.8577400000 N         0.0000000000         0.0000000000      -127.1469274211      -53.6483015960     -176.8934871327
atom        10.3731000000        3.5079800000        4.9675500000 N         0.0000000000         0.0000000000       132.5060361977       53.2814404647      182.6857389028
atom         4.6002800000        7.4342400000        4.9811800000 N         0.0000000000         0.0000000000      -230.0366817352       38.2568229861       -6.4876885118
atom         3.4927000000        7.5582500000        4.9391500000 N         0.0000000000         0.0000000000       232.1908188660      -33.9237561641       10.8983508899
atom         6.1009200000       11.9945000000        7.1477600000 N         0.0000000000         0.0000000000       109.9961712812       48.1883076584     -207.2059638576
atom         6.5251200000        0.2249400000        6.1427900000 N         0.0000000000         0.0000000000       -76.4895205045      -42.2534126225      216.4459536998
atom         8.4134500000        7.7396500000        8.1423200000 N         0.0000000000         0.0000000000       -66.7784248557       67.7872900499     -208.9618759795
atom         8.0936700000        8.0384500000        7.1156700000 N         0.0000000000         0.0000000000        70.1708060281      -57.1705594481      215.4170355611
atom         4.3751800000       11.7365000000        5.3183300000 N         0.0000000000         0.0000000000       -61.8106705181     -134.8390254441      190.4511218509
atom         4.1376200000       11.1147000000        6.2150800000 N         0.0000000000         0.0000000000        46.0666793865      131.4742250358     -200.4433337776
atom         1.6471400000        8.5835500000        9.8928000000 N         0.0000000000         0.0000000000         6.5133972306     -229.7898981077       41.0651597859
atom         1.6610100000        7.4816000000       10.0757000000 N         0.0000000000         0.0000000000         0.2784681636      229.8088184309      -35.7718026392
atom         8.3024900000        4.1861000000        3.1897500000 N         0.0000000000         0.0000000000      -153.4872139717       39.2125810839      165.1222112287
atom         7.5732400000        4.4075200000        4.0075700000 N         0.0000000000         0.0000000000       158.7149549623      -55.4558496835     -175.9202876629
atom         1.2639800000        9.4212700000        4.8230100000 N         0.0000000000         0.0000000000       184.9518567261       11.4359173274      133.0253026499
atom         2.1681500000        9.4839100000        5.4778300000 N         0.0000000000         0.0000000000      -195.4696172238      -19.9724220939     -146.2078350627
atom        10.5191000000        0.2296000000        1.1579400000 N         0.0000000000         0.0000000000      -204.2007052012      -31.0065016060      111.4406794041
atom         9.5557700000        0.0815000000        1.7034600000 N         0.0000000000         0.0000000000       195.1126773278       25.2832882257     -116.5802469087
atom         4.7142100000        4.8422000000        5.0554900000 N         0.0000000000         0.0000000000      -134.3093595647       33.5714808632      185.8396883274
atom         4.0895500000        5.0719400000        5.9490500000 N         0.0000000000         0.0000000000       128.5750032743      -53.3003490711     -180.2070299240
atom         6.6611100000        6.2501200000        5.5191900000 N         0.0000000000         0.0000000000        -3.9095227381      -15.6608482343      230.1641350618
atom         6.6498800000        6.1660200000        6.6313900000 N         0.0000000000         0.0000000000        -1.8355707759       11.3922408678     -222.4298382007
atom         1.1119900000        1.3086100000        1.7286700000 N         0.0000000000         0.0000000000       160.3303539112       18.9467919355     -166.0872915662
atom         1.8744100000        1.3459100000        0.9112200000 N         0.0000000000         0.0000000000      -156.4812632769        3.6459624217      174.7618104516
atom         0.7662700000        5.2415400000        0.8177800000 N         0.0000000000         0.0000000000       157.9790132978      153.3792718460      -37.9299760841
atom         1.5560500000        5.9960200000        0.5935500000 N         0.0000000000         0.0000000000      -166.2855127046     -150.3395522940       50.5835271631
atom        10.6109000000        9.7744300000        5.1448700000 N         0.0000000000         0.0000000000       -30.7032272118     -137.1880628118      173.6624599889
atom        10.4599000000        9.1080000000        6.0260000000 N         0.0000000000         0.0000000000        28.0256399053      135.8194602021     -180.2331203063
atom         6.5218800000        1.8140500000        8.8304900000 N         0.0000000000         0.0000000000      -125.4580024966     -122.7714377630      152.5078524938
atom         5.8988300000        1.2293900000        9.5506000000 N         0.0000000000         0.0000000000       135.8167768838      120.1611406451     -150.0485623284
atom         0.5406400000        1.3754700000        8.7993900000 N         0.0000000000         0.0000000000         5.5453468400        9.6666905082     -241.5647467599
atom         0.5982800000        1.3918900000        7.6824700000 N         0.0000000000         0.0000000000       -24.0915462280       -1.3889755528      237.1512283036
atom         4.3436200000        8.7807900000        7.2835200000 N         0.0000000000         0.0000000000       204.5865203655      -93.2051507387       76.3437058108
atom         5.2997600000        8.3198700000        7.6293000000 N         0.0000000000         0.0000000000      -193.6866114445       93.2019452514      -54.2088504535
atom         8.9703400000        7.1816900000        4.5973800000 N         0.0000000000         0.0000000000         7.8192044432     -202.1593997426       94.4061136670
atom         8.9998400000        6.1902000000        5.1101600000 N         0.0000000000         0.0000000000         7.3361253433      208.8185924956     -106.8088155376
atom         6.8216300000       11.6483000000        0.2519600000 N         0.0000000000         0.0000000000       120.8917630323      134.7156557822     -139.4096350920
atom         7.4150300000        0.3021600000       11.5713000000 N         0.0000000000         0.0000000000      -116.0372077865     -135.0622289631      138.6916869118
atom         1.8994900000        2.9448600000       10.7087000000 N         0.0000000000         0.0000000000       -15.8180268848      235.8346675831       -7.9056301637
atom         1.8581800000        4.0615000000       10.6661000000 N         0.0000000000         0.0000000000         8.2283931652     -237.3883277759        9.7229404210
atom         3.3796900000        9.6218800000        2.8809400000 N         0.0000000000         0.0000000000       142.2086371274       -6.6942330251      181.3869557252
atom         4.0582200000        9.6208100000        3.7679900000 N         0.0000000000         0.0000000000      -136.9413979396        1.9094246270     -196.2218462738
atom         5.4896000000       11.5276000000        2.7160000000 N         0.0000000000         0.0000000000       171.9011697854      -16.8408488694      142.9182734703
atom         6.3269200000       11.3831000000        3.4398300000 N         0.0000000000         0.0000000000      -167.4863312277       28.8170094928     -149.8099153269
atom         0.6700100000        5.3660500000        8.3599000000 N         0.0000000000         0.0000000000       -56.7957212381     -233.4725252684       17.2908773125
atom         0.4329500000        4.2771500000        8.4562000000 N         0.0000000000         0.0000000000        34.5142431141      233.0929075531      -25.1902537142
atom        11.6240000000        0.6226400000        4.3151700000 N         0.0000000000         0.0000000000        42.7396828877     -124.0839042972      202.1374999878
atom        11.8289000000        0.0467100000        5.2528400000 N         0.0000000000         0.0000000000       -58.2674686188      126.6178377023     -193.6845493183
atom         1.8266100000       11.2253000000        6.8910500000 N         0.0000000000         0.0000000000        32.4543747790     -120.9734482777      209.1328255131
atom         1.9747500000       10.6421000000        7.8343800000 N         0.0000000000         0.0000000000       -36.2028912692      123.9325287006     -198.0282729763
atom         8.8044200000        0.3873600000        4.5802900000 N         0.0000000000         0.0000000000        -4.7392391360      198.9300137318     -113.7046522150
atom         8.7664200000        1.3488200000        4.0146400000 N         0.0000000000         0.0000000000         1.9867081271     -193.5081882839      109.8719993425
atom         1.8010300000        7.7499800000        7.2127700000 N         0.0000000000         0.0000000000       179.1268550793     -144.3800183839       12.5526454556
atom         2.6875500000        7.0716100000        7.2670600000 N         0.0000000000         0.0000000000      -192.3783417897      139.3279640018      -11.3704626808
atom        10.3113000000        1.1887200000       10.5506000000 N         0.0000000000         0.0000000000      -130.6733912352      163.4401309782       97.9699658224
atom         9.7282800000        2.0089100000       11.0352000000 N         0.0000000000         0.0000000000       115.9547476281     -174.7338607913     -101.6801817146
atom         5.7338600000        5.9326200000        2.8520800000 N         0.0000000000         0.0000000000        19.5861023532     -214.7071547551      -86.3406005018
atom         5.7696000000        4.8874900000        2.4623400000 N         0.0000000000         0.0000000000        -9.1422377350      213.8738251085       72.3888961517
atom         0.7714700000        0.2064200000       11.2688000000 N         0.0000000000         0.0000000000       153.2411557131     -147.5894590337     -111.5462951685
atom         1.5085500000       11.5304000000       10.7687000000 N         0.0000000000         0.0000000000      -159.4795806763      141.0600969785      102.3679080836
atom         5.7439000000        8.0306100000        1.0326300000 N         0.0000000000         0.0000000000       -50.2423379605      222.4673351214       38.8550700315
atom         5.4481300000        9.0909900000        1.2270500000 N         0.0000000000         0.0000000000        65.1520536833     -227.7947234173      -45.5709485276
atom        11.1504000000        4.1085500000       10.8917000000 N         0.0000000000         0.0000000000      -160.6052462212      153.5264491752      -85.9388594692
atom        10.3990000000        4.8327300000       10.4917000000 N         0.0000000000         0.0000000000       156.4658300639     -154.7191321826       79.4300948011
atom         8.5529400000        9.8093200000        2.2739200000 C         0.0000000000         0.0000000000        -8.2131453225       -4.8505291729       -0.0378134654
atom         5.1669800000        4.9642800000        8.2501800000 C         0.0000000000         0.0000000000         2.4863295029        3.9830798647        2.9603266032
atom         8.5866700000       11.3823000000        7.9069600000 C         0.0000000000         0.0000000000         6.6634732592        2.1989287689      -14.3361352748
atom         1.2129300000        5.8455600000        4.8524200000 C         0.0000000000         0.0000000000        -8.9277700852       -4.3217667894       -5.7313446488
atom         2.0868200000        8.3488600000        1.2311600000 C         0.0000000000         0.0000000000        10.1823352464       -0.1194081016      -16.5775128018
atom         5.5141200000        2.2800700000        4.9466400000 C         0.0000000000         0.0000000000        10.6057627826      -13.8527503550        3.6233093820
atom         6.5353000000        9.0121800000        4.5621700000 C         0.0000000000         0.0000000000        -6.2184487529        3.2498772112       11.0064536256
atom         3.3925300000        3.3899900000        2.2793500000 C         0.0000000000         0.0000000000         2.0633073636       -2.4595039301      -15.3692141289
atom        10.5065000000        5.8877500000        1.8373000000 C         0.0000000000         0.0000000000         5.9211836130       -0.7143180790      -25.4845224193
atom        10.6221000000        6.0501800000        7.0280900000 C         0.0000000000         0.0000000000        -0.6842977194        3.5638008723        0.2133538741
energy    -34391.6197107892
charge 0
end
begin
comment generated by PY
lattice        12.0000000000         0.0000000000         0.0000000000
lattice         0.0000000000        12.0000000000         0.0000000000
lattice         0.0000000000         0.0000000000        12.0000000000
atom         9.1566600000        3.3245400000        8.4977000000 H         0.0000000000         0.0000000000       109.5387355354      -43.8336956849       -9.2499669362
atom        10.6992000000        3.5417800000        8.2659400000 H         0.0000000000         0.0000000000       -86.0546026614      -74.2509258982       14.4088708570
atom         7.1048400000        9.0655400000       10.0987000000 H         0.0000000000         0.0000000000         9.4576023576       89.0658526773      -51.3380832478
atom         6.4512100000       10.2979000000        9.3780100000 H         0.0000000000         0.0000000000        88.8095426468      -64.0308970542       36.8855402743
atom         7.4356000000        7.4266000000        1.5709100000 H         0.0000000000         0.0000000000        88.2818551997      -60.9155710763       53.8778668879
atom         8.8167700000        7.4796900000        2.3011900000 H         0.0000000000         0.0000000000       -98.6829331387      -64.3765463779      -43.1351266803
atom         5.9495200000        2.1628300000        1.3125200000 H         0.0000000000         0.0000000000       -91.2455023361      -60.0978636087       21.2537920564
atom         5.1478900000        1.2146100000        2.2035000000 H         0.0000000000         0.0000000000        -0.2715282435       64.9706754074     -118.8057553313
atom         9.5523100000       11.7121000000       10.5682000000 H         0.0000000000         0.0000000000       -12.5249372749     -111.3009830592       42.0781326624
atom         8.8923700000       10.3395000000       10.3392000000 H         0.0000000000         0.0000000000        61.0327680661       78.1848152561       77.1152824710
atom         4.5946500000        7.5180100000       10.6268000000 H         0.0000000000         0.0000000000        89.6872559043       44.8909792840      -70.2900880698
atom         5.3311800000        7.7544900000        9.2827700000 H         0.0000000000         0.0000000000       -10.0111594104       23.7830135395       91.2120678823