begin
comment generated by PY
lattice        12.0000000000         0.0000000000         0.0000000000
lattice         0.0000000000        12.0000000000         0.0000000000
lattice         0.0000000000         0.0000000000        12.0000000000
atom         3.7461400000        0.6902000000        9.3832200000 C         0.0000000000         0.0000000000         5.0253546228      -17.3184484965       -7.4828249822
atom         5.1990800000        5.0579500000        6.9318300000 C         0.0000000000         0.0000000000        13.5365878042      -13.4249978124       24.5582844844
atom         6.5979900000        2.8827900000        7.8473800000 C         0.0000000000         0.0000000000        17.1626053131        7.5948300639        4.8052647526
atom        11.7356000000        9.8219500000        5.8101200000 C         0.0000000000         0.0000000000         5.2096084014        6.8178971409       -0.1197995469
atom         9.1963800000        3.6118500000        5.1269300000 C         0.0000000000         0.0000000000         4.3709885124       -4.6071285240       -1.6436405596
atom         0.5283500000        0.3410800000        9.2590900000 C         0.0000000000         0.0000000000        -1.8519695503       -0.3653252016       -1.0166011986
atom         6.4038700000        7.2130800000       11.6755000000 C         0.0000000000         0.0000000000        -9.7255555186        4.4671279371       -4.3558146718
atom         4.1551700000        6.0182000000        4.4932400000 C         0.0000000000         0.0000000000         7.7819894716       -4.7066809098      -12.0862176975
atom         2.5345400000        1.1902600000       11.8328000000 C         0.0000000000         0.0000000000         0.8251525290      -14.9188601126      -19.0500419862
atom         0.5810900000        5.2015400000        7.7447100000 C         0.0000000000         0.0000000000        -3.8826814082        2.4310660320        3.9251819982
atom         8.1938100000        4.7368400000       11.4699000000 C         0.0000000000         0.0000000000         5.4658572109       -3.9744162682      -10.0657216623
atom         9.5129000000        2.2325400000       10.1334000000 C         0.0000000000         0.0000000000         3.2795558355       -1.1344175384        5.7287243977
atom         6.0605800000        3.0301000000        4.0236900000 C         0.0000000000         0.0000000000       -12.8254466246        0.0169264422       15.0270602038
atom        11.1260000000        8.3589700000        7.9467300000 C         0.0000000000         0.0000000000        12.5668917603       -5.0110109619       -4.8272875759
atom         7.4420600000        9.4837300000        7.4461800000 C         0.0000000000         0.0000000000        -4.8955467980       22.1390023924       15.0607055434
atom         5.2053600000        0.9610900000        1.5350400000 C         0.0000000000         0.0000000000         6.3995787999       -4.4720859549        5.4094280499
atom        10.6363000000       11.0760000000       11.1982000000 C         0.0000000000         0.0000000000         1.6344624615        2.9789154711       -2.0494139624
atom         6.5544000000        5.6386800000        2.9378400000 C         0.0000000000         0.0000000000         2.6051270484       -3.3166833178       -3.5190165661
atom         8.5964100000        7.5181300000        5.7874600000 C         0.0000000000         0.0000000000         2.7044027076       20.1653423303      -27.5097579033
atom        11.3399000000        1.5912800000        6.8341300000 C         0.0000000000         0.0000000000        -2.4438415756       -4.5014881536       -2.8239255279
atom         2.1221100000        3.8527100000        2.6424100000 C         0.0000000000         0.0000000000       -14.7159272901       18.4604760157       14.6679152291
atom         7.7056100000        2.7312000000        1.5732700000 C         0.0000000000         0.0000000000       -13.3100640411      -24.5838816927       -4.3530704666
atom         9.5975500000        6.8729000000        2.8565400000 C         0.0000000000         0.0000000000         7.5290383205      -18.1275508841      -12.9565227795
atom         0.7268700000        3.8877300000       10.5960000000 C         0.0000000000         0.0000000000        -3.7537037632        3.4773461558       -1.2544476908
atom         5.9684000000        6.9341000000        8.7666100000 C         0.0000000000         0.0000000000        -0.7968111155        1.2212635622       -4.9169931077
atom         5.0284400000       10.8847000000        7.8982000000 C         0.0000000000         0.0000000000         4.8110760107        5.1915750529       -5.5691684660
atom         1.7642400000        6.7309800000        5.4524400000 C         0.0000000000         0.0000000000         3.6580716706        2.8082674158        4.5948833730
atom         1.9198100000        9.8599200000        2.3272900000 C         0.0000000000         0.0000000000        -2.8126027988       -2.3399538068       -2.9442324069
atom         7.0873900000        8.4356500000        3.1495300000 C         0.0000000000         0.0000000000       -15.8042467929      -10.3341003201      -20.7823042318
atom         4.2949300000        3.5003200000        0.8086500000 C         0.0000000000         0.0000000000         4.6561783097       -2.6085861306       -5.1504119747
atom        11.1799000000        6.0108200000        4.7975300000 C         0.0000000000         0.0000000000        14.6860177593       -9.9267588000        8.5472998785
atom         9.7834800000        1.5704900000        2.6508000000 C         0.0000000000         0.0000000000         2.5110630730        2.9425951080        2.1775383671
atom         9.3124800000        8.4025100000       11.5066000000 C         0.0000000000         0.0000000000         7.2494983575       22.6505084079       -5.4183986031
atom         2.2939100000        3.1493500000        7.9956400000 C         0.0000000000         0.0000000000        -7.9232583887        5.7797804510        1.6035382666
atom         9.4860800000       11.1842000000        8.6452100000 C         0.0000000000         0.0000000000         3.7483998372       18.7172090967      -13.5804489665
atom         5.5085900000        2.9523300000       10.4237000000 C         0.0000000000         0.0000000000        19.6937771840      -34.7105985045       -3.4730107728
atom         3.9210000000        2.6510700000        5.6327000000 C         0.0000000000         0.0000000000         8.7810185326       -7.6385989841        6.5389336916
atom         5.5309200000       10.0374000000       11.3905000000 C         0.0000000000         0.0000000000        -7.3425707292        3.1671587245        5.3141188050
atom         2.2749600000        0.8776900000        4.0729300000 C         0.0000000000         0.0000000000         3.8638640011       -5.6586433923        5.5387516032
atom         4.4195600000        8.4143100000        2.6968200000 C         0.0000000000         0.0000000000       -13.9829938926      -17.8909266009      -27.9557258413
atom         4.1094300000        5.5397200000       10.1346000000 C         0.0000000000         0.0000000000       -11.4446501913        8.4137562449       14.2352762879
atom         9.6769500000        6.6943000000        9.4999900000 C         0.0000000000         0.0000000000         0.0051425022        1.2261523983        5.8699010726
atom        11.2285000000        9.0818600000        1.1845400000 C         0.0000000000         0.0000000000         6.7964969523       10.2618746837       -6.8468381286
atom         9.2305700000        4.8588400000        7.5411400000 C         0.0000000000         0.0000000000        12.7560343751        2.3633602630        6.1440679280
atom         2.5675100000        9.8000800000       10.7670000000 C         0.0000000000         0.0000000000        -4.5157165117        1.4674349122       -2.6458058551
atom         0.1090000000        2.7166200000        4.0052700000 C         0.0000000000         0.0000000000       -11.4597779108        0.8196410580        1.4189616403
atom         5.1096100000       10.9481000000        3.8460700000 C         0.0000000000         0.0000000000        -1.4571729683        2.3044636234        2.6660530162
atom         7.6381300000        0.5468000000        6.1155400000 C         0.0000000000         0.0000000000         5.2403711725       16.1363878660        1.7281113469
atom         8.7819900000       10.5790000000        4.8085000000 C         0.0000000000         0.0000000000        21.3426063668       -2.9866407547      -12.9446696578
atom         0.6794700000        7.4930100000       10.5413000000 C         0.0000000000         0.0000000000        -5.2181177436      -11.6161053657       10.1129035436
atom        10.8457000000        4.4827400000        0.9249000000 C         0.0000000000         0.0000000000        -2.3533750457        8.1769013563        3.1533915774
atom         2.5726400000       10.9722000000        5.8824200000 C         0.0000000000         0.0000000000        -0.0891059575        5.1462610760        9.6674198771
atom         7.6181500000       11.3007000000        1.7447000000 C         0.0000000000         0.0000000000        -6.1814490763       -0.8085719949       -5.9147077174
atom         2.4689500000        8.3888200000        7.8933900000 C         0.0000000000         0.0000000000        -3.3247775702        1.9619683643        3.1404315494
atom         0.7488500000        6.7392300000        2.3511300000 C         0.0000000000         0.0000000000         4.0557277605       30.2062739035      -16.7427188548
atom         5.3023700000        8.3367800000        6.0858500000 C         0.0000000000         0.0000000000         0.1180469453       35.4121464961       36.8439067405
atom         0.2392900000        0.9233400000        0.7862200000 C         0.0000000000         0.0000000000        -4.0746835310        3.0754469251       -0.5161873067
atom         3.1070700000        6.7617200000        0.7305900000 C         0.0000000000         0.0000000000       -11.0990878793       10.3792989942        1.8156722477
atom        11.1566000000       11.3090000000        3.3597400000 C         0.0000000000         0.0000000000         3.1173018197        9.8232400000       -2.0358543601
atom         7.1695600000        0.3334200000       10.3657000000 C         0.0000000000         0.0000000000         2.6530929882        4.6474383620       -0.5938552324
atom         3.4484500000        1.2460500000        8.4047700000 O         0.0000000000         0.0000000000         4.8865070632        4.6657253765        6.8598442777
atom         4.0954700000       11.9923000000       10.2564000000 O         0.0000000000         0.0000000000        -3.4758010991        1.4995582556        5.9412273476
atom         6.1487200000        4.7836400000        6.2999000000 O         0.0000000000         0.0000000000        -8.4506761823        4.4258264956       -1.2240538885
atom         4.3465500000        5.2498700000        7.7158700000 O         0.0000000000         0.0000000000         3.8284199388        1.0788877387      -14.5635431888
atom         7.5070000000        3.5322200000        8.1715100000 O         0.0000000000         0.0000000000        -2.4258774087       -4.8682661697       -3.5964077652
atom         5.6552600000        2.2570000000        7.5802200000 O         0.0000000000         0.0000000000       -17.4803104830       -1.6509968744       -2.0270913519
atom        11.3345000000        9.1439200000        4.9488700000 O         0.0000000000         0.0000000000        -5.6419706161       -6.3612752297       -2.5644943628
atom         0.1263900000       10.5012000000        6.6749100000 O         0.0000000000         0.0000000000        -0.9721865831       -3.5870682433       -5.2476121845
atom         9.0628300000        2.8520400000        6.0072300000 O         0.0000000000         0.0000000000         2.8144015216        4.1865502494       -0.3897463220
atom         9.3734700000        4.3621800000        4.2484600000 O         0.0000000000         0.0000000000        -0.6590704622        3.4324933900        3.7074212434
atom        11.8685000000        0.9771500000        9.9872500000 O         0.0000000000         0.0000000000        -6.9091938504       -4.1634205197        9.1971000004
atom         1.1817500000       11.7146000000        8.5269700000 O         0.0000000000         0.0000000000        -1.2359992524        8.8353722442       10.2209883321
atom         5.2846900000        7.3578100000       11.3923000000 O         0.0000000000         0.0000000000        -5.2356206996        0.2800934162        4.1548189353
atom         7.5305400000        7.0854200000       11.9280000000 O         0.0000000000         0.0000000000         7.1473862509       -5.4297674533        2.4703150847
atom         4.5537800000        6.5078100000        5.4838800000 O         0.0000000000         0.0000000000       -21.5883165059       -1.3271114775      -18.0914611264
atom         3.8702300000        5.5173400000        3.4820300000 O         0.0000000000         0.0000000000         1.3412014724        8.4989419093        3.5605255525
atom         2.1621500000        1.6609600000       10.8282000000 O         0.0000000000         0.0000000000        -3.4234305946        6.9695894257       -0.0226454581
atom         2.8731000000        0.5970700000        0.7735100000 O         0.0000000000         0.0000000000         1.8152571579        1.1119796251        5.2699347950
atom         0.0922900000        4.6082100000        6.8715300000 O         0.0000000000         0.0000000000        -5.7877594006        1.4541520365        7.1137409113
atom         1.0994500000        5.7944100000        8.6011500000 O         0.0000000000         0.0000000000         3.7843051104        4.6772095295        6.4026919739
atom         8.0148000000        4.6186300000        0.6192600000 O         0.0000000000         0.0000000000        -0.6885187820        5.4599537106      -10.0117830405
atom         8.3842500000        4.8219800000       10.3221000000 O         0.0000000000         0.0000000000        -2.3658046811        3.7061067921        5.7273177043
atom         9.1504300000        1.7926900000        9.1182600000 O         0.0000000000         0.0000000000        -3.2745516966       -6.0820811749       -1.5503837034
atom         9.8603700000        2.6459000000       11.1654000000 O         0.0000000000         0.0000000000        -2.1945801121        1.1888865528        5.2682052539
atom         5.3129600000        3.3837100000        3.1920100000 O         0.0000000000         0.0000000000         0.5599562268       12.1537159215        5.5140768168
atom         6.6521700000        2.6719300000        4.9642100000 O         0.0000000000         0.0000000000         2.6149047207        7.3430780613       -9.2988431382
atom        11.8572000000        7.6738000000        7.3407200000 O         0.0000000000         0.0000000000        -2.5614273099        8.9571088772        4.1841058313
atom        10.3666000000        9.0253500000        8.5243300000 O         0.0000000000         0.0000000000         1.8439675401        1.5007804646        5.0624359840
atom         7.2584200000        8.9465600000        8.4549500000 O         0.0000000000         0.0000000000         1.4014817449       -7.2213414283        5.7715478354
atom         7.5356100000       10.2248000000        6.5403000000 O         0.0000000000         0.0000000000        -5.4427736024       -5.8973661853        3.1724626506
atom         5.0684800000        1.1535600000        2.6803200000 O         0.0000000000         0.0000000000        -1.0531982883       -4.1040165481      -11.0018415483
atom         5.4254100000        0.7880500000        0.4009500000 O         0.0000000000         0.0000000000        -2.9044529616        3.4365289859       -3.7195049705
atom        10.0618000000       11.7787000000       11.9342000000 O         0.0000000000         0.0000000000         6.8245385787       -9.5380732633        0.9733165499
atom        11.2327000000       10.3903000000       10.4590000000 O         0.0000000000         0.0000000000        -5.8903096576        3.8718890718        0.9155268166
atom         6.9336900000        5.3023100000        3.9928700000 O         0.0000000000         0.0000000000        -6.1965537352        4.4250424369       -6.5726251522
atom         6.1423800000        5.9851500000        1.9004900000 O         0.0000000000         0.0000000000         0.2721836482       -1.6125318803        6.0106857182
atom         9.0249400000        8.1666500000        6.6656000000 O         0.0000000000         0.0000000000         7.0041110661      -13.0269035720       -0.4695127575
atom         8.1678000000        7.1320400000        4.7711000000 O         0.0000000000         0.0000000000         7.4444522304      -10.9065784245       23.1869428757
atom        11.2820000000        0.9636000000        5.8507300000 O         0.0000000000         0.0000000000        -0.3273214185       -0.4010690510        1.3844169394
atom        11.4098000000        2.2057500000        7.8211800000 O         0.0000000000         0.0000000000        -5.0315117891       -2.4288060983       -6.5635623568
atom         1.4976700000        4.5782600000        1.9724300000 O         0.0000000000         0.0000000000        -0.4952483291      -11.8572495163       -1.7601193876
atom         2.6535600000        3.2168100000        3.4680400000 O         0.0000000000         0.0000000000         7.6048614023       -2.2815183781       -8.2021526564
atom         7.8574800000        3.1283000000        2.6643300000 O         0.0000000000         0.0000000000         8.4155780282       11.1306808301        3.3093961847
atom         7.4944500000        2.1230800000        0.6036700000 O         0.0000000000         0.0000000000         2.9726660626       12.6837856781        2.0310808267
atom        10.2089000000        7.5736600000        3.5602100000 O         0.0000000000         0.0000000000        -0.5656060611        9.6824553544        1.8953003200
atom         9.0867800000        6.0848300000        2.1655200000 O         0.0000000000         0.0000000000        -3.0859625350        5.9347473336        1.1926223615
atom         1.4737800000        4.1708600000       11.4487000000 O         0.0000000000         0.0000000000         3.8607738876       -0.5995050667       -4.1038781848
atom        11.9621000000        3.6186300000        9.7498100000 O         0.0000000000         0.0000000000         9.4297809298        1.2171357241        8.2059345863
atom         6.7765900000        6.0993400000        8.6532900000 O         0.0000000000         0.0000000000         5.3240348406        5.2477966689       -4.4909956043
atom         5.0968300000        7.7018000000        8.8839900000 O         0.0000000000         0.0000000000        -0.1252187757       -0.7050070738       -0.7179440413
atom         5.5625200000       11.6723000000        7.2254300000 O         0.0000000000         0.0000000000        -4.4172940928        2.5078576569        4.9137876915
atom         4.5134800000       10.0971000000        8.5853200000 O         0.0000000000         0.0000000000        -3.5330835004       -4.1057691497       -1.9973893661
atom         1.5924700000        7.8795900000        5.3522800000 O         0.0000000000         0.0000000000         0.1140805310       -2.1755782206        1.9931692858
atom         1.9492100000        5.5757400000        5.5558900000 O         0.0000000000         0.0000000000         4.5920469256        6.1130284303       -3.6309755267
atom         2.7594600000       10.2952000000        1.6433800000 O         0.0000000000         0.0000000000        -5.7789733318       -7.8449678282        5.6561067320
atom         1.0752800000        9.3950000000        2.9932200000 O         0.0000000000         0.0000000000        -2.4184057911        1.3807964333       -4.4137888895
atom         6.2179600000        8.4394500000        3.9452900000 O         0.0000000000         0.0000000000         9.6137579818       -0.1599479610       -3.1034885515
atom         7.7580800000        8.3273500000        2.2000400000 O         0.0000000000         0.0000000000        -0.7255079010       -2.1148828582       14.0022955713
atom         3.2329600000        3.0331300000        0.9684400000 O         0.0000000000         0.0000000000        15.2868372772        6.9672603103       -1.5560335377
atom         5.3779700000        3.8847100000        0.6040400000 O         0.0000000000         0.0000000000         0.9304008701        0.4887452546        7.5019882976
atom        10.6197000000        6.3420900000        5.7615300000 O         0.0000000000         0.0000000000        -0.8650011559        0.0529700788       -1.9260400305
atom        11.8736000000        5.5856200000        3.9553500000 O         0.0000000000         0.0000000000        -8.8477788191       -1.2977784605       -0.5793270872
atom         9.8940500000        1.6456700000        1.4921000000 O         0.0000000000         0.0000000000        -2.9549555617       -4.7111085350        8.2124607213
atom         9.7070000000        1.5081000000        3.8157900000 O         0.0000000000         0.0000000000        -2.4187747599        1.8302695746        7.8281336282
atom        10.0626000000        7.5319900000       11.7466000000 O         0.0000000000         0.0000000000         1.3845553026      -11.5572779078        0.2004653439
atom         8.7142900000        9.3751000000       11.2638000000 O         0.0000000000         0.0000000000         5.1102405000      -14.5661720913        0.6620913940
atom         2.7467000000        3.7945100000        8.8560800000 O         0.0000000000         0.0000000000         1.4494015637       -7.3468830517        7.4739697318
atom         1.7708600000        2.6090000000        7.1072700000 O         0.0000000000         0.0000000000        -0.4174881612       -9.6170556402       -3.1034654909
atom         8.6034100000       10.7813000000        9.2878800000 O         0.0000000000         0.0000000000        -3.9309932563        3.2504534239        1.3487192110
atom        10.3314000000       11.6374000000        7.9841500000 O         0.0000000000         0.0000000000         4.5934074980       -3.2588013423        2.2058336595
atom         4.3676100000        2.6971300000       10.3908000000 O         0.0000000000         0.0000000000        -6.4937580780        5.1734955832        6.2690791587
atom         6.6769400000        2.9161400000       10.4319000000 O         0.0000000000         0.0000000000        -4.1070144193       12.1388649286        4.1881644878
atom         4.2916400000        1.5494600000        5.5582900000 O         0.0000000000         0.0000000000        -1.8840698331        1.7347527848       -7.5298685002
atom         3.6126100000        3.7755400000        5.7337100000 O         0.0000000000         0.0000000000         4.8295936307        0.5254807076       -3.6844529375
atom         4.7854300000       10.3034000000        0.2483400000 O         0.0000000000         0.0000000000         3.2566105903        0.5550904512       -6.6632069848
atom         6.2725900000        9.7703200000       10.5292000000 O         0.0000000000         0.0000000000         4.8563208059        1.7098012718       -1.0726152697
atom         2.8335700000        0.3347300000        3.2052600000 O         0.0000000000         0.0000000000        -9.2720467814        1.8265568264        3.7405131297
atom         1.7635000000        1.3759700000        4.9998700000 O         0.0000000000         0.0000000000        -3.1588569272       -5.6857856573       -0.8327625098
atom         4.9611700000        8.2346900000        1.6743500000 O         0.0000000000         0.0000000000         4.9536363185        5.4386457643        8.5499518415
atom         3.7129200000        8.4291100000        3.6261000000 O         0.0000000000         0.0000000000        -8.3980520117        5.9994552314       13.1336277882
atom         3.0830000000        6.0830800000       10.1824000000 O         0.0000000000         0.0000000000         4.7509571620       -1.4385400455       -3.1179244545
atom         5.1759300000        5.0505900000       10.1998000000 O         0.0000000000         0.0000000000        -1.2713971935        3.0458141209        2.4960737168
atom        10.7026000000        6.1419300000        9.5097500000 O         0.0000000000         0.0000000000         9.9955022936        2.6593423968       -3.3107567570
atom         8.6758600000        7.2880000000        9.4902300000 O         0.0000000000         0.0000000000        -3.4110701408        2.3118199382       -4.8248431578
atom         0.1839700000        9.1923800000        0.5143200000 O         0.0000000000         0.0000000000         0.9076170487       -5.9787007382        2.9758714788
atom        10.2400000000        9.0863100000        1.8048000000 O         0.0000000000         0.0000000000         2.1872929789       -0.8893761552      -12.8410816761
atom         9.9734500000        4.2226000000        8.1746300000 O         0.0000000000         0.0000000000       -14.0318591938       -0.5464888668       -4.6774631955
atom         8.5694700000        5.5901500000        6.9021900000 O         0.0000000000         0.0000000000        -7.0806951460      -11.1544562551        2.1964710771
atom         3.2513600000        8.8964000000       10.4695000000 O         0.0000000000         0.0000000000        -2.4014101672        3.7918459096        0.3792307121
atom         1.8526000000       10.6813000000       11.0542000000 O         0.0000000000         0.0000000000         4.6673626755       -1.1551259105       -2.4828600228
atom         0.3233300000        2.1168100000        3.0251100000 O         0.0000000000         0.0000000000        -3.1666283319       -8.6945414775      -11.1850576023
atom        11.8535000000        3.3606000000        4.9368200000 O         0.0000000000         0.0000000000         2.2100768004       -6.3071982446       -1.3127678167
atom         5.1664500000       10.6234000000        2.7262700000 O         0.0000000000         0.0000000000         9.6510238274       -4.9945457306      -13.0989216635
atom         5.0474300000       11.2592000000        4.9584600000 O         0.0000000000         0.0000000000        -3.8961026472       -3.6581639128        3.0394032885
atom         7.3328400000        0.3612700000        5.0034500000 O         0.0000000000         0.0000000000        -5.3565732739        2.0652104378        0.4989610773
atom         8.0145100000        0.7966000000        7.1914900000 O         0.0000000000         0.0000000000        -4.4143423427       -2.6396717493       -1.0252027830
atom         9.6259200000       11.0921000000        5.4293700000 O         0.0000000000         0.0000000000         1.4034649520        1.2264983066       10.9383558597
atom         8.0778200000       10.0521000000        4.0414400000 O         0.0000000000         0.0000000000         0.7352163917       -0.1518767692        1.7697356361
atom         0.5760200000        8.4176200000        9.8337900000 O         0.0000000000         0.0000000000         3.4882768556       -0.7561784299       -0.4649928901
atom         0.7544700000        6.5841600000       11.2638000000 O         0.0000000000         0.0000000000        -1.8897657885        2.7686955154       -1.7464444826
atom        10.7165000000        4.9911700000       11.8809000000 O         0.0000000000         0.0000000000         2.3816472776       -4.0573881200        0.5525076698
atom        10.9519000000        4.0240400000        1.9930800000 O         0.0000000000         0.0000000000        -7.6525736762       -0.1988280450       -0.1294388560
atom         2.7939800000       11.7404000000        6.7278900000 O         0.0000000000         0.0000000000         6.4326015047       -8.4211356203       -2.2808957433
atom         2.3450600000       10.2405000000        5.0048000000 O         0.0000000000         0.0000000000        -2.2128440661       -2.4385376495       -9.9767771287
atom         7.5478600000       10.4188000000        0.9903400000 O         0.0000000000         0.0000000000        -3.5531692377        0.5602560140       10.3718504372
atom         7.6171200000        0.1913700000        2.5029100000 O         0.0000000000         0.0000000000         3.7650034317        8.4415211448        1.0587789409
atom         2.0302800000        9.4616000000        8.0394800000 O         0.0000000000         0.0000000000         4.3644393168       -2.5568382608       -8.1805218623
atom         2.8773400000        7.3032400000        7.7615100000 O         0.0000000000         0.0000000000         1.2467224072        0.8070961199       -6.1096385298
atom         1.7482300000        6.9568400000        2.9118800000 O         0.0000000000         0.0000000000         6.8679615906      -13.2713453809       12.4792386173
atom        11.8260000000        6.7824100000        1.6317600000 O         0.0000000000         0.0000000000        -3.8404575448      -15.3302141680        2.4767720381
atom         6.3672700000        7.9168100000        6.3478800000 O         0.0000000000         0.0000000000       -12.1527012574      -25.5852859901       -2.7879049519
atom         4.3397000000        9.0019800000        6.0955500000 O         0.0000000000         0.0000000000         1.6161985074      -10.5756134394      -10.3194107510
atom         0.1284300000        2.0241200000        0.4202000000 O         0.0000000000         0.0000000000         4.0218979366        3.1258111619        3.0658306766
atom         0.3963600000       11.8129000000        1.1229200000 O         0.0000000000         0.0000000000        -3.2994109674       -1.7414634042        7.9610315664