168
Lattice="11.42 0.0 0.0 0.0 10.58 0.0 0.0 0.0 13.14" Properties=species:S:1:pos:R:3 Timestep:=T pbc="F F F" 1229=T Atoms.=T
H       7.80281000       5.50840000      11.83330000 
H       7.58619000       3.43957000      12.62200000 
H       3.43531000       7.86657000       1.41157000 
H       9.34673000       7.29063000       5.01615000 
H       2.45088000       2.08266000       6.89342000 
H       3.33512000       6.43606000       7.68090000 
H       7.88168000       2.66984000       6.15662000 
H       1.98417000       1.68436000       1.18412000 
H       9.08494000       9.00636000      12.01580000 
H       8.08532000       3.67966000       1.17946000 
H       3.19623000       7.55708000      12.75400000 
H       9.12191000       7.95901000       6.70333000 
H       3.55763000       2.60049000       5.47887000 
H       3.09860000       7.07104000       5.95900000 
H       8.09724000       2.98824000       7.92310000 
H       1.80819000       2.27354000      12.61240000 
H       8.05513000       9.33849000       0.32773100 
H       8.83626000       3.97442000      10.87170000 
H       1.93834000       6.82776000       2.96426000 
H       7.64005000       6.58508000       3.73538000 
H       3.15671000       2.85478000       9.25230000 
H       3.00389000       7.95271000       9.60551000 
H       9.50512000       1.81932000       4.87766000 
H       3.35696000       0.24714500       1.90052000 
H       8.18935000       8.46043000       9.90466000 
H      10.25420000       5.01346000      10.93600000 
H       0.63152300       5.76341000       2.31716000 
H       6.00536000       6.20791000       4.58420000 
H       4.61358000       3.95080000       9.40324000 
H       2.41188000       9.62349000       9.36112000 
H      11.22810000       1.55206000       5.57051000 
H       4.63473000      10.09020000       0.95247100 
H       6.40032000       8.66820000       9.60504000 
H       8.83755000       1.82081000      11.17610000 
H       2.03416000       8.97018000       2.59534000 
H       7.96179000       9.07209000       3.09103000 
H       3.27645000       0.80947900       8.56722000 
H       1.79860000       6.18887000       9.07482000 
H       8.77363000       3.90140000       4.53671000 
H       3.48603000       2.45572000       2.70299000 
H       8.93799000       6.64945000      10.93520000 
H      10.28360000       0.91389000      11.89250000 
H       0.50998700       9.87706000       1.85801000 
H       6.99336000      10.24680000       3.98394000 
H       4.88630000      10.49380000       8.42264000 
H       0.00634209       6.30082000       8.79519000 
H       9.76281000       5.36552000       4.75113000 
H       4.93587000       3.50924000       2.11289000 
N       9.44868000       4.40972000      12.83490000 
N       1.96568000       6.55220000       0.92121300 
N       7.43463000       7.17101000       5.74758000 
N       4.00753000       3.44127000       7.37328000 
N       2.92266000       8.50531000       7.57495000 
N       9.78408000       2.35819000       6.87536000 
N       3.38787000       0.86888400      13.04110000 
N       7.05461000       9.15608000      11.56970000 
N       9.08086000       2.12340000       0.11162700 
N       1.72550000       8.71525000       0.55069200 
N       8.47072000       9.15889000       5.07982000 
N       4.34739000       1.20080000       6.86266000 
N       1.34690000       6.92721000       7.18776000 
N       8.83019000       4.44394000       6.53247000 
N       3.38262000       3.10430000       0.68028000 
N       8.05261000       7.33753000      12.72390000 
N      10.48850000       3.00502000      11.59190000 
N       0.46296800       7.81489000       1.84849000 
N       6.43721000       8.23934000       4.23059000 
N       4.97755000       1.94250000       8.74663000 
N       1.05548000       8.09474000       8.89847000 
N      10.59130000       3.51638000       5.34536000 
N       4.88328000       1.51385000       1.40314000 
N       6.93111000       7.05288000      10.83760000 
N      10.32000000       4.92653000       0.49868000 
N       0.31683400       6.28970000      12.05930000 
N       6.68099000       7.23491000       6.77839000 
N       5.38762000       3.84484000       6.90344000 
N       2.18163000       9.38730000       6.59527000 
N      10.38190000       1.90885000       7.88292000 
N       4.00593000       0.93432300      11.86390000 
N       5.57680000       8.94314000      11.99190000 
N      10.10970000       2.10799000       1.19815000 
N       1.43274000       9.31647000      12.65370000 
N       8.30058000      10.19560000       6.12474000 
N       4.84636000       0.45476800       5.99621000 
N       0.57746100       6.74385000       6.21684000 
N       9.55437000       5.01261000       7.67465000 
N       4.28852000       3.61115000      12.72100000 
N       7.48899000       6.88985000       0.66374100 
N       0.16374700       2.89553000      10.99050000 
N      10.66280000       7.90471000       2.08385000 
N       5.31459000       8.39571000       3.69594000 
N       6.16082000       1.82061000       9.16888000 
N       0.04128150       8.74972000       9.23986000 
N       0.23311600       3.76272000       4.75984000 
N       6.09577000       1.32545000       1.63050000 
N       6.05824000       6.26134000      10.37510000 
O       0.14450200       4.85288000       0.22768500 
O      10.82560000       7.09730000      12.05830000 
O       5.46027000       7.04477000       6.65793000 
O       5.94748000       4.68258000       7.57967000 
O       1.29517000      10.09540000       7.00646000 
O       9.72068000       1.69459000       8.92880000 
O       5.24072000       0.78570100      11.83950000 
O       4.77880000       9.16638000      11.11610000 
O       9.94083000       5.35750000       1.58584000 
O       1.33515000       6.28044000      11.42680000 
O       7.23867000       7.56024000       7.84050000 
O       5.82136000       3.30773000       5.90577000 
O       2.58157000       9.33640000       5.45095000 
O       0.18507100       1.70592000       7.77739000 
O       3.32678000       1.07021000      10.83410000 
O       5.34001000       8.48891000      13.10340000 
O       9.73134000       2.34420000       2.33834000 
O       2.06737000       9.00959000      11.63710000 
O       8.74952000       9.95310000       7.22831000 
O       4.69201000       0.80648000       4.81294000 
O       0.97919200       6.88507000       5.05584000 
O       8.91025000       5.63000000       8.52219000 
O       3.81689000       3.63488000      11.59820000 
O       7.49068000       7.58999000       1.69669000 
O      11.24010000       1.79166000       0.89710300 
O       0.50754700      10.13190000      12.71350000 
O       7.81434000       0.65423200       5.72983000 
O       5.47621000      10.03100000       6.36350000 
O      10.80790000       6.50334000       6.50886000 
O      10.70740000       4.59447000       7.81518000 
O       5.35607000       4.04160000      13.08850000 
O       6.94991000       5.78183000       0.64261200 
O       0.68534800       1.77183000      10.90840000 
O      10.02390000       8.64435000       1.30802000 
O       5.03915000       9.41082000       3.04264000 
O       6.89088000       0.98101100       8.60331000 
O      10.34360000       8.20026000       9.08951000 
O       0.22486800       4.45366000       3.71811000 
O       6.70358000       2.20486000       2.25822000 
O       6.18961000       5.05994000      10.61700000 
O       0.69691400       3.93083000      10.55310000 
O      10.22130000       7.35472000       3.12239000 
O       4.45834000       7.48927000       3.84897000 
O       6.54239000       2.57056000      10.08660000 
O       0.16706000       9.90034000       9.67388000 
O       1.26739000       3.26777000       5.25242000 
O       6.66619000       0.30138200       1.17860000 
O       5.09501000       6.72939000       9.74117000 
C       8.44919000       3.43966000       0.16647100 
C       2.71443000       7.68352000       0.59985500 
C       8.69682000       7.86012000       5.69211000 
C       3.48314000       2.31403000       6.54172000 
C       2.76864000       7.12617000       7.01961000 
C       8.55540000       3.06748000       6.93107000 
C       2.51484000       1.99689000       0.26736900 
C       8.10630000       8.79597000      12.49900000 
C       9.74381000       4.21019000      11.44450000 
C       1.24460000       6.64756000       2.11817000 
C       6.86383000       6.87245000       4.45821000 
C       4.14918000       3.12038000       8.84817000 
C       2.39437000       8.60416000       8.93586000 
C      10.30520000       2.12691000       5.55987000 
C       4.06744000       0.41142900       1.07687000 
C       7.17263000       8.38460000      10.33480000 
C       9.67191000       1.83767000      11.90970000 
C       1.21361000       9.04989000       1.85803000 
C       7.44531000       9.24889000       4.04146000 
C       4.31613000       0.82273500       8.21826000 
C       0.98051800       6.71963000       8.56599000 
C       9.48230000       4.41261000       5.21359000 
C       4.20594000       2.70885000       1.88250000 
C       8.03691000       6.52797000      11.55070000 
168
Lattice="11.42 0.0 0.0 0.0 10.58 0.0 0.0 0.0 13.14" Properties=species:S:1:pos:R:3 Timestep:=T 1230=T pbc="F F F" Atoms.=T
H       7.80118000       5.50758000      11.83240000 
H       7.58571000       3.44026000      12.62060000 
H       3.43405000       7.86575000       1.41210000 
H       9.34789000       7.28736000       5.01795000 
H       2.45190000       2.08353000       6.89214000 
H       3.33594000       6.43598000       7.68086000 
H       7.88342000       2.67088000       6.15657000 
H       1.98335000       1.68515000       1.18409000 
H       9.08620000       9.00706000      12.01380000 
H       8.08607000       3.68169000       1.17758000 
H       3.19532000       7.55745000      12.75520000 
H       9.12399000       7.95839000       6.70581000 
H       3.55678000       2.60117000       5.47967000 
H       3.09804000       7.07127000       5.95775000 
H       8.09834000       2.98948000       7.92093000 
H       1.80644000       2.26934000      12.60970000 
H       8.05452000       9.33559000       0.32869400 
H       8.83528000       3.97403000      10.87420000 
H       1.93987000       6.82980000       2.96129000 
H       7.64083000       6.58587000       3.73533000 
H       3.15741000       2.85450000       9.25451000 
H       3.00167000       7.95148000       9.60619000 
H       9.50273000       1.82095000       4.87516000 
H       3.35879000       0.24568900       1.89984000 
H       8.19261000       8.45986000       9.90524000 
H      10.25420000       5.01242000      10.93600000 
H       0.63309200       5.76319000       2.31858000 
H       6.00772000       6.20450000       4.58437000 
H       4.61248000       3.95030000       9.40383000 
H       2.41129000       9.62628000       9.35888000 
H      11.22650000       1.55361000       5.57184000 
H       4.63389000      10.08680000       0.95106600 
H       6.39956000       8.66864000       9.60715000 
H       8.83627000       1.82244000      11.17640000 
H       2.03724000       8.96771000       2.59475000 
H       7.96145000       9.07271000       3.09361000 
H       3.27738000       0.81116300       8.56612000 
H       1.79869000       6.18970000       9.07374000 
H       8.77238000       3.90233000       4.53881000 
H       3.48583000       2.45643000       2.70632000 
H       8.93715000       6.64696000      10.93300000 
H      10.28510000       0.91444700      11.89180000 
H       0.51284700       9.87797000       1.85864000 
H       6.99247000      10.24530000       3.98344000 
H       4.88657000      10.49510000       8.42546000 
H       0.00486693       6.29861000       8.79474000 
H       9.76637000       5.36764000       4.75115000 
H       4.93696000       3.50709000       2.11260000 
N       9.44865000       4.40931000      12.83500000 
N       1.96520000       6.55161000       0.92180300 
N       7.43450000       7.17067000       5.74847000 
N       4.00758000       3.44090000       7.37333000 
N       2.92241000       8.50520000       7.57443000 
N       9.78455000       2.35801000       6.87562000 
N       3.38822000       0.86849400      13.04100000 
N       7.05457000       9.15659000      11.56950000 
N       9.08093000       2.12298000       0.11131900 
N       1.72524000       8.71518000       0.55009500 
N       8.47033000       9.15906000       5.08059000 
N       4.34694000       1.20064000       6.86260000 
N       1.34698000       6.92780000       7.18774000 
N       8.82973000       4.44442000       6.53319000 
N       3.38233000       3.10408000       0.68015100 
N       8.05311000       7.33770000      12.72310000 
N      10.48830000       3.00489000      11.59240000 
N       0.46305100       7.81457000       1.84858000 
N       6.43749000       8.23983000       4.23005000 
N       4.97768000       1.94218000       8.74637000 
N       1.05495000       8.09442000       8.89801000 
N      10.59210000       3.51617000       5.34522000 
N       4.88357000       1.51397000       1.40332000 
N       6.93133000       7.05385000      10.83750000 
N      10.31910000       4.92599000       0.49902300 
N       0.31658500       6.29026000      12.05930000 
N       6.68070000       7.23488000       6.77769000 
N       5.38823000       3.84439000       6.90336000 
N       2.18236000       9.38737000       6.59521000 
N      10.38170000       1.90861000       7.88299000 
N       4.00576000       0.93374800      11.86460000 
N       5.57647000       8.94338000      11.99230000 
N      10.10940000       2.10759000       1.19807000 
N       1.43295000       9.31699000      12.65360000 
N       8.30109000      10.19510000       6.12447000 
N       4.84677000       0.45500500       5.99648000 
N       0.57720300       6.74429000       6.21679000 
N       9.55509000       5.01263000       7.67465000 
N       4.28831000       3.61158000      12.72160000 
N       7.48826000       6.89023000       0.66383000 
N       0.16429200       2.89507000      10.99090000 
N      10.66300000       7.90473000       2.08389000 
N       5.31445000       8.39638000       3.69694000 
N       6.16050000       1.82042000       9.16951000 
N       0.04075400       8.74986000       9.23933000 
N       0.23354900       3.76261000       4.76020000 
N       6.09582000       1.32574000       1.63090000 
N       6.05856000       6.26198000      10.37550000 
O       0.14418500       4.85323000       0.22779500 
O      10.82520000       7.09755000      12.05880000 
O       5.46012000       7.04446000       6.65790000 
O       5.94728000       4.68313000       7.57938000 
O       1.29504000      10.09580000       7.00626000 
O       9.72147000       1.69432000       8.92898000 
O       5.24033000       0.78616400      11.83920000 
O       4.77874000       9.16620000      11.11650000 
O       9.94123000       5.35809000       1.58636000 
O       1.33504000       6.28117000      11.42740000 
O       7.23934000       7.56029000       7.84029000 
O       5.82068000       3.30784000       5.90619000 
O       2.58126000       9.33598000       5.45114000 
O       0.18509900       1.70599000       7.77721000 
O       3.32643000       1.07090000      10.83400000 
O       5.34035000       8.48891000      13.10290000 
O       9.73134000       2.34467000       2.33832000 
O       2.06803000       9.00933000      11.63680000 
O       8.74911000       9.95373000       7.22842000 
O       4.69193000       0.80681100       4.81241000 
O       0.97860200       6.88413000       5.05585000 
O       8.91044000       5.63030000       8.52276000 
O       3.81650000       3.63534000      11.59760000 
O       7.49084000       7.58983000       1.69632000 
O      11.23940000       1.79130000       0.89725400 
O       0.50756200      10.13170000      12.71410000 
O       7.81447000       0.65380400       5.73031000 
O       5.47693000      10.03020000       6.36314000 
O      10.80800000       6.50278000       6.50868000 
O      10.70770000       4.59448000       7.81456000 
O       5.35593000       4.04177000      13.08810000 
O       6.95015000       5.78205000       0.64287500 
O       0.68447100       1.77142000      10.90880000 
O      10.02450000       8.64520000       1.30798000 
O       5.03918000       9.40966000       3.04256000 
O       6.89097000       0.98128500       8.60328000 
O      10.34350000       8.20040000       9.08967000 
O       0.22533400       4.45431000       3.71865000 
O       6.70355000       2.20502000       2.25838000 
O       6.19037000       5.05979000      10.61720000 
O       0.69701900       3.93098000      10.55240000 
O      10.22150000       7.35512000       3.12229000 
O       4.45825000       7.48990000       3.84896000 
O       6.54243000       2.57020000      10.08620000 
O       0.16743700       9.90054000       9.67366000 
O       1.26752000       3.26798000       5.25277000 
O       6.66647000       0.30109200       1.17837000 
O       5.09583000       6.72871000       9.74205000 
C       8.44900000       3.43955000       0.16637400 
C       2.71381000       7.68368000       0.59928500 
C       8.69662000       7.86048000       5.69208000 
C       3.48283000       2.31401000       6.54098000 
C       2.76852000       7.12555000       7.01987000 
C       8.55497000       3.06735000       6.93115000 
C       2.51435000       1.99700000       0.26689600 
C       8.10628000       8.79667000      12.49880000 
C       9.74408000       4.21026000      11.44420000 
C       1.24420000       6.64710000       2.11739000 
C       6.86354000       6.87226000       4.45850000 
C       4.14812000       3.12045000       8.84881000 
C       2.39475000       8.60404000       8.93617000 
C      10.30500000       2.12706000       5.55942000 
C       4.06660000       0.41132900       1.07592000 
C       7.17223000       8.38400000      10.33460000 
C       9.67183000       1.83692000      11.90930000 
C       1.21388000       9.04970000       1.85760000 
C       7.44539000       9.24903000       4.04074000 
C       4.31624000       0.82261900       8.21737000 
C       0.98095000       6.71940000       8.56555000 
C       9.48210000       4.41181000       5.21402000 
C       4.20639000       2.70905000       1.88249000 
C       8.03694000       6.52763000      11.55020000 
168
Lattice="11.42 0.0 0.0 0.0 10.58 0.0 0.0 0.0 13.14" Properties=species:S:1:pos:R:3 Timestep:=T pbc="F F F" 1231=T Atoms.=T
H       7.79956000       5.50676000      11.83140000 
H       7.58523000       3.44094000      12.61920000 
H       3.43278000       7.86493000       1.41263000 
H       9.34906000       7.28410000       5.01975000 
H       2.45292000       2.08441000       6.89086000 
H       3.33676000       6.43590000       7.68082000 
H       7.88516000       2.67191000       6.15651000 
H       1.98253000       1.68593000       1.18407000 
H       9.08745000       9.00776000      12.01180000 
H       8.08683000       3.68372000       1.17571000 
H       3.19442000       7.55781000      12.75640000 
H       9.12606000       7.95776000       6.70828000 
H       3.55594000       2.60184000       5.48047000 
H       3.09748000       7.07150000       5.95651000 
H       8.09943000       2.99072000       7.91878000 
H       1.80470000       2.26514000      12.60710000 
H       8.05392000       9.33269000       0.32965900 
H       8.83430000       3.97364000      10.87670000 
H       1.94139000       6.83184000       2.95833000 
H       7.64162000       6.58665000       3.73528000 
H       3.15812000       2.85422000       9.25671000 
H       2.99946000       7.95025000       9.60687000 
H       9.50035000       1.82257000       4.87267000 
H       3.36061000       0.24423300       1.89915000 
H       8.19587000       8.45929000       9.90582000 
H      10.25420000       5.01139000      10.93600000 
H       0.63466000       5.76298000       2.32000000 
H       6.01007000       6.20110000       4.58454000 
H       4.61138000       3.94979000       9.40443000 
H       2.41070000       9.62907000       9.35663000 
H      11.22500000       1.55515000       5.57316000 
H       4.63304000      10.08340000       0.94966200 
H       6.39880000       8.66907000       9.60925000 
H       8.83499000       1.82406000      11.17680000 
H       2.04032000       8.96525000       2.59414000 
H       7.96112000       9.07333000       3.09618000 
H       3.27830000       0.81284600       8.56501000 
H       1.79878000       6.19052000       9.07267000 
H       8.77113000       3.90326000       4.54091000 
H       3.48563000       2.45715000       2.70963000 
H       8.93630000       6.64447000      10.93080000 
H      10.28670000       0.91500400      11.89110000 
H       0.51570400       9.87888000       1.85927000 
H       6.99159000      10.24370000       3.98294000 
H       4.88683000      10.49640000       8.42828000 
H       0.00339971       6.29640000       8.79429000 
H       9.76993000       5.36975000       4.75118000 
H       4.93806000       3.50494000       2.11231000 
N       9.44862000       4.40891000      12.83510000 
N       1.96472000       6.55102000       0.92239300 
N       7.43437000       7.17034000       5.74936000 
N       4.00763000       3.44053000       7.37337000 
N       2.92216000       8.50509000       7.57391000 
N       9.78501000       2.35783000       6.87589000 
N       3.38857000       0.86810400      13.04090000 
N       7.05453000       9.15710000      11.56930000 
N       9.08100000       2.12256000       0.11101000 
N       1.72499000       8.71511000       0.54949800 
N       8.46995000       9.15922000       5.08135000 
N       4.34649000       1.20048000       6.86255000 
N       1.34706000       6.92838000       7.18773000 
N       8.82927000       4.44489000       6.53390000 
N       3.38204000       3.10385000       0.68002300 
N       8.05361000       7.33786000      12.72230000 
N      10.48800000       3.00476000      11.59300000 
N       0.46313500       7.81425000       1.84867000 
N       6.43777000       8.24032000       4.22952000 
N       4.97781000       1.94187000       8.74611000 
N       1.05441000       8.09410000       8.89756000 
N      10.59290000       3.51596000       5.34508000 
N       4.88387000       1.51410000       1.40350000 
N       6.93156000       7.05481000      10.83750000 
N      10.31820000       4.92545000       0.49936600 
N       0.31633600       6.29081000      12.05930000 
N       6.68041000       7.23484000       6.77699000 
N       5.38883000       3.84394000       6.90328000 
N       2.18308000       9.38744000       6.59515000 
N      10.38150000       1.90838000       7.88306000 
N       4.00559000       0.93317300      11.86540000 
N       5.57615000       8.94362000      11.99270000 
N      10.10910000       2.10719000       1.19799000 
N       1.43317000       9.31750000      12.65350000 
N       8.30160000      10.19450000       6.12421000 
N       4.84717000       0.45524100       5.99674000 
N       0.57694400       6.74473000       6.21673000 
N       9.55581000       5.01266000       7.67465000 
N       4.28810000       3.61201000      12.72230000 
N       7.48753000       6.89061000       0.66391900 
N       0.16483700       2.89462000      10.99130000 
N      10.66320000       7.90475000       2.08394000 
N       5.31432000       8.39705000       3.69793000 
N       6.16019000       1.82023000       9.17015000 
N       0.04022670       8.74999000       9.23880000 
N       0.23398200       3.76250000       4.76055000 
N       6.09587000       1.32603000       1.63129000 
N       6.05887000       6.26262000      10.37600000 
O       0.14386800       4.85357000       0.22790600 
O      10.82490000       7.09781000      12.05920000 
O       5.45997000       7.04416000       6.65788000 
O       5.94709000       4.68367000       7.57909000 
O       1.29491000      10.09610000       7.00605000 
O       9.72227000       1.69405000       8.92917000 
O       5.23994000       0.78662600      11.83890000 
O       4.77868000       9.16601000      11.11690000 
O       9.94164000       5.35868000       1.58689000 
O       1.33494000       6.28190000      11.42810000 
O       7.24001000       7.56034000       7.84008000 
O       5.82000000       3.30796000       5.90661000 
O       2.58095000       9.33555000       5.45134000 
O       0.18512700       1.70606000       7.77704000 
O       3.32607000       1.07159000      10.83390000 
O       5.34068000       8.48891000      13.10240000 
O       9.73134000       2.34515000       2.33829000 
O       2.06870000       9.00907000      11.63640000 
O       8.74870000       9.95436000       7.22853000 
O       4.69185000       0.80714100       4.81188000 
O       0.97801100       6.88318000       5.05587000 
O       8.91063000       5.63061000       8.52333000 
O       3.81612000       3.63580000      11.59700000 
O       7.49100000       7.58966000       1.69595000 
O      11.23880000       1.79094000       0.89740500 
O       0.50757700      10.13160000      12.71470000 
O       7.81459000       0.65337700       5.73080000 
O       5.47766000      10.02930000       6.36278000 
O      10.80820000       6.50221000       6.50849000 
O      10.70800000       4.59448000       7.81393000 
O       5.35578000       4.04194000      13.08770000 
O       6.95039000       5.78228000       0.64313700 
O       0.68359300       1.77102000      10.90930000 
O      10.02500000       8.64605000       1.30793000 
O       5.03921000       9.40851000       3.04249000 
O       6.89105000       0.98155800       8.60326000 
O      10.34350000       8.20054000       9.08982000 
O       0.22580000       4.45496000       3.71919000 
O       6.70352000       2.20517000       2.25854000 
O       6.19113000       5.05965000      10.61750000 
O       0.69712400       3.93113000      10.55170000 
O      10.22170000       7.35551000       3.12218000 
O       4.45817000       7.49053000       3.84896000 
O       6.54247000       2.56983000      10.08590000 
O       0.16781400       9.90073000       9.67344000 
O       1.26764000       3.26820000       5.25312000 
O       6.66675000       0.30080200       1.17814000 
O       5.09665000       6.72803000       9.74292000 
C       8.44882000       3.43944000       0.16627700 
C       2.71319000       7.68385000       0.59871400 
C       8.69642000       7.86084000       5.69205000 
C       3.48253000       2.31398000       6.54023000 
C       2.76840000       7.12493000       7.02013000 
C       8.55454000       3.06723000       6.93123000 
C       2.51387000       1.99712000       0.26642300 
C       8.10627000       8.79738000      12.49860000 
C       9.74435000       4.21033000      11.44390000 
C       1.24379000       6.64664000       2.11661000 
C       6.86325000       6.87207000       4.45880000 
C       4.14707000       3.12051000       8.84944000 
C       2.39512000       8.60392000       8.93649000 
C      10.30480000       2.12722000       5.55897000 
C       4.06577000       0.41122900       1.07496000 
C       7.17182000       8.38339000      10.33430000 
C       9.67175000       1.83616000      11.90900000 
C       1.21415000       9.04951000       1.85718000 
C       7.44547000       9.24918000       4.04001000 
C       4.31636000       0.82250400       8.21649000 
C       0.98138100       6.71917000       8.56511000 
C       9.48190000       4.41101000       5.21445000 
C       4.20683000       2.70925000       1.88249000 
C       8.03698000       6.52729000      11.54980000 
168
Lattice="11.42 0.0 0.0 0.0 10.58 0.0 0.0 0.0 13.14" Properties=species:S:1:pos:R:3 Timestep:=T pbc="F F F" 1232=T Atoms.=T
H       7.79794000       5.50595000      11.83040000 
H       7.58475000       3.44162000      12.61780000 
H       3.43152000       7.86411000       1.41315000 
H       9.35021000       7.28084000       5.02156000 
H       2.45392000       2.08528000       6.88959000 
H       3.33757000       6.43582000       7.68078000 
H       7.88690000       2.67294000       6.15644000 
H       1.98172000       1.68672000       1.18404000 
H       9.08869000       9.00847000      12.00980000 
H       8.08758000       3.68575000       1.17384000 
H       3.19351000       7.55817000      12.75760000 
H       9.12812000       7.95714000       6.71074000 
H       3.55510000       2.60252000       5.48125000 
H       3.09691000       7.07173000       5.95527000 
H       8.10051000       2.99196000       7.91665000 
H       1.80296000       2.26094000      12.60440000 
H       8.05332000       9.32979000       0.33062500 
H       8.83332000       3.97325000      10.87910000 
H       1.94292000       6.83388000       2.95537000 
H       7.64239000       6.58744000       3.73524000 
H       3.15881000       2.85394000       9.25892000 
H       2.99724000       7.94902000       9.60756000 
H       9.49799000       1.82421000       4.87019000 
H       3.36243000       0.24277700       1.89848000 
H       8.19911000       8.45871000       9.90641000 
H      10.25430000       5.01036000      10.93600000 
H       0.63622200       5.76276000       2.32143000 
H       6.01241000       6.19770000       4.58472000 
H       4.61028000       3.94930000       9.40502000 
H       2.41011000       9.63185000       9.35438000 
H      11.22340000       1.55668000       5.57449000 
H       4.63219000      10.08010000       0.94826200 
H       6.39804000       8.66951000       9.61134000 
H       8.83372000       1.82569000      11.17710000 
H       2.04339000       8.96278000       2.59353000 
H       7.96080000       9.07395000       3.09873000 
H       3.27921000       0.81452600       8.56392000 
H       1.79887000       6.19134000       9.07160000 
H       8.76987000       3.90419000       4.54300000 
H       3.48544000       2.45786000       2.71293000 
H       8.93545000       6.64198000      10.92860000 
H      10.28820000       0.91555700      11.89040000 