begin
comment generated by PY
lattice        11.0000000000         0.0000000000         0.0000000000
lattice         0.0000000000        11.0000000000         0.0000000000
lattice         0.0000000000         0.0000000000        22.0000000000
atom        10.7847000000        4.4853300000        1.6168100000 N         0.0000000000         0.0000000000        87.0829290092      217.7798119873      -38.9645356790
atom         0.2149500000        5.5016700000        1.4400900000 N         0.0000000000         0.0000000000       -91.6151822745     -215.2185890098       37.9790768832
atom         6.7630600000        4.3014400000        0.6756700000 N         0.0000000000         0.0000000000         0.9113481900      126.6346937453     -203.3362231470
atom         6.7728900000        4.8864500000       21.7236000000 N         0.0000000000         0.0000000000         2.8162853811     -123.8530934670      203.6915452350
atom         3.0361900000        3.7678400000        5.3722600000 N         0.0000000000         0.0000000000        17.7997860098      165.9406696430     -166.3170097563
atom         3.1085800000        4.5623100000        4.5904000000 N         0.0000000000         0.0000000000       -13.4401746751     -165.4037823021      167.2162609662
atom         0.5621600000        8.1539600000        4.1993200000 N         0.0000000000         0.0000000000        77.5028979295      -71.5205899899      208.1603805702
atom         0.9334300000        7.8181900000        5.1982100000 N         0.0000000000         0.0000000000       -78.5929051432       67.5560423871     -213.4100490496
atom         3.2193200000        7.8231400000        7.3103000000 N         0.0000000000         0.0000000000        15.9977036738       94.4202891526      213.9036323086
atom         3.2988400000        8.2818300000        8.3270300000 N         0.0000000000         0.0000000000       -16.7708509230      -94.6724938903     -215.7222430355
atom         0.9129000000        3.0351600000        7.3030300000 N         0.0000000000         0.0000000000      -183.4107449617      -42.9467245414      141.3523677523
atom         0.0306800000        2.8238500000        7.9541600000 N         0.0000000000         0.0000000000       185.6941837576       48.2745021343     -137.1536764015
atom         2.6892500000        0.9906000000        6.9062400000 N         0.0000000000         0.0000000000       124.9986137023      -27.3461532714     -200.3714476455
atom         3.2828800000        0.8553900000        5.9685100000 N         0.0000000000         0.0000000000      -128.5681146224       31.5305396311      198.3467208742
atom         2.2927300000        9.6205100000       10.9445000000 N         0.0000000000         0.0000000000      -122.5063839418      146.7168468792      145.0316130973
atom         1.7308800000       10.3027000000       11.6299000000 N         0.0000000000         0.0000000000       120.2490709979     -146.7881851086     -147.5196599464
atom         4.4158800000        6.2588200000        9.5833200000 N         0.0000000000         0.0000000000       133.7516342033     -128.7718689746     -143.0296977912
atom         5.0642800000        5.6491800000        8.9071100000 N         0.0000000000         0.0000000000      -136.8021879446      130.0815977620      142.2907926666
atom         1.5516700000        5.7172000000        6.8781700000 N         0.0000000000         0.0000000000      -159.9305096800      -10.4771693109      169.2975332402
atom         0.7742900000        5.6579200000        7.6786500000 N         0.0000000000         0.0000000000       162.5341161117       14.1628276202     -166.2053462324
atom         1.4525000000        6.9491000000       10.1709000000 N         0.0000000000         0.0000000000      -107.6626837638      159.3379469746     -134.6206882389
atom         0.9357900000        7.7075600000        9.5321400000 N         0.0000000000         0.0000000000       110.5583542189     -160.7830033296      138.0553149749
atom         5.0540600000       10.9652000000        7.8646700000 N         0.0000000000         0.0000000000       -23.3800362386     -184.0709060582     -140.9778601354
atom         4.9216800000       10.0898000000        7.1844300000 N         0.0000000000         0.0000000000        28.4137521674      182.1214233421      142.8184107646
atom         3.2168900000        9.3101700000        4.9354500000 N         0.0000000000         0.0000000000       110.1298452254       61.3272314371     -199.2647739041
atom         3.7244900000        9.5926600000        3.9804800000 N         0.0000000000         0.0000000000      -107.3765909631      -61.6596874090      201.2215708883
atom         6.8117400000        7.3148400000        6.1296200000 N         0.0000000000         0.0000000000      -154.6582943721       23.0499556975      176.2637036550
atom         6.0717700000        7.4299000000        6.9604200000 N         0.0000000000         0.0000000000       157.4825306987      -23.1026275430     -179.1204314965
atom         6.3356400000        2.6683300000        8.8163600000 N         0.0000000000         0.0000000000        -3.8155194064     -121.7067602248      204.8213512988
atom         6.3164700000        2.0922000000        9.7753400000 N         0.0000000000         0.0000000000         4.4629366479      123.3419046771     -206.4713867745
atom         4.6986000000        6.7505300000        4.7575300000 N         0.0000000000         0.0000000000        70.5537483668       87.8549744954     -206.2629958683
atom         5.0495000000        7.1738500000        3.7848800000 N         0.0000000000         0.0000000000       -72.3861874461      -88.3785541169      205.1376330126
atom         0.8422400000        9.9967600000        6.2147600000 N         0.0000000000         0.0000000000        37.4110742513      -48.9603258158      229.5504422994
atom         1.0168500000        9.7405100000        7.2885600000 N         0.0000000000         0.0000000000       -37.2642117817       56.6873813214     -222.3069465543
atom         9.4183100000       10.2648000000        4.1988200000 N         0.0000000000         0.0000000000      -116.9919820376      182.0193472561      -95.0766023586
atom         8.8554500000        0.1215700000        3.7516900000 N         0.0000000000         0.0000000000       120.4564583374     -182.5072073150       93.9497388694
atom         3.6045900000        1.0169700000        9.8930100000 N         0.0000000000         0.0000000000       135.7796969566     -134.2904481003      139.3819180338
atom         4.2487100000        0.4025100000       10.5690000000 N         0.0000000000         0.0000000000      -138.9833163680      127.6777440145     -143.7217708445
atom         6.8058000000       10.3791000000       10.9916000000 N         0.0000000000         0.0000000000        27.0480745405        1.7016396313     -234.3583667346
atom         6.9193200000       10.3926000000        9.8794200000 N         0.0000000000         0.0000000000       -23.7202837731       -0.4403503333      234.7075236517
atom         4.0569100000        2.9847800000        7.8533600000 N         0.0000000000         0.0000000000      -145.7263886032      173.3612132689       72.4232770567
atom         3.3761700000        3.8054400000        8.1908600000 N         0.0000000000         0.0000000000       142.4818393867     -174.9581072934      -70.2067025343
atom         4.6801300000        8.7656800000       12.2292000000 N         0.0000000000         0.0000000000        23.1797845240      -19.6210537939     -236.5423421848
atom         4.7911600000        8.6826300000       11.1192000000 N         0.0000000000         0.0000000000       -24.1929352811       17.6941247963      236.7911225969
atom         6.1104800000        1.6569200000        5.7928600000 N         0.0000000000         0.0000000000       101.7094623232       -6.8273932328     -211.7645331412
atom         6.5800200000        1.6215000000        4.7778100000 N         0.0000000000         0.0000000000       -93.4580867839        5.7672971002      218.8731707130
atom        10.0228000000        7.7807800000        7.3133300000 N         0.0000000000         0.0000000000      -102.9355766916       93.9218693506     -191.7754506449
atom         9.5392200000        8.2275800000        6.4095400000 N         0.0000000000         0.0000000000       101.5601536767      -95.2566757470      190.9649563482
atom         8.7925600000        3.1305300000        4.4726100000 N         0.0000000000         0.0000000000       151.8049733931      -59.6769839969     -170.8217782637
atom         9.5039600000        2.8564300000        3.6547000000 N         0.0000000000         0.0000000000      -148.9138596534       56.4976381789      170.5623280884
atom        10.8596000000        0.8659900000        9.8286100000 N         0.0000000000         0.0000000000       208.2636598294      -45.6589477531      -98.7267206054
atom         0.8628400000        0.6537700000        9.3852400000 N         0.0000000000         0.0000000000      -208.3941337123       42.7231107465       91.5310292490
atom         7.6016000000        7.6635400000        8.8132300000 N         0.0000000000         0.0000000000      -139.8411887447      -26.5680516870      189.3476751358
atom         6.9338600000        7.5312600000        9.6986000000 N         0.0000000000         0.0000000000       138.1706064694       27.6623863522     -185.2093237452
atom         2.0364700000        0.3544600000        3.2972900000 N         0.0000000000         0.0000000000      -205.4041626635     -118.8624012543        2.2300920255
atom         1.0741200000       10.7864000000        3.3131100000 N         0.0000000000         0.0000000000       202.9149198620      119.0770461195       -2.5836353333
atom         2.2783500000        7.6232500000        1.8934800000 N         0.0000000000         0.0000000000        49.2293201716     -100.0730559156      205.7823133626
atom         2.5157400000        7.1486200000        2.8769700000 N         0.0000000000         0.0000000000       -52.6189035334       99.0358511911     -208.4968672645
atom         4.1631700000        3.6092000000       21.8413000000 N         0.0000000000         0.0000000000        14.7996682077     -181.5745861634      153.5442684920
atom         4.2332400000        2.7550600000        0.5587600000 N         0.0000000000         0.0000000000       -16.4457021299      188.3596603094     -147.8240320740
atom         0.5365800000        5.2535100000        4.1539600000 N         0.0000000000         0.0000000000       -69.7197021559     -154.8465763334      165.7104682920
atom         0.2146400000        4.5171500000        4.9313200000 N         0.0000000000         0.0000000000        67.5035208255      156.7133551180     -164.1226640793
atom         8.8803600000        3.5107900000        9.6574600000 N         0.0000000000         0.0000000000        92.3109427368      -89.4335966175      203.3507992568
atom         9.3045000000        3.0963000000       10.6063000000 N         0.0000000000         0.0000000000       -90.8637164068       88.4287534912     -203.4015898444
atom         0.1820300000        1.5721000000        1.1743400000 N         0.0000000000         0.0000000000      -202.2342482702     -108.4192543460       71.1923670268
atom        10.2410000000        1.0598300000        1.4932200000 N         0.0000000000         0.0000000000       200.3891904636      107.6834157878      -64.1693851413
atom         8.6371700000        1.2705600000        8.0127300000 N         0.0000000000         0.0000000000       -34.9170106501      148.7707971553     -179.4579429647
atom         8.4720300000        1.9762800000        7.1615200000 N         0.0000000000         0.0000000000        36.4958845590     -150.4773311748      178.2668034995
atom         4.4957700000        5.1586600000        2.1712800000 N         0.0000000000         0.0000000000        -2.3248774101      165.9080746159     -171.2328688664
atom         4.4897400000        5.9388600000        1.3706800000 N         0.0000000000         0.0000000000         1.8675005677     -168.1020847537      169.3175467560
atom         9.6582900000        6.3023300000        9.9696400000 N         0.0000000000         0.0000000000      -102.7297424678      -47.5533882115      207.4072592654
atom         9.1762100000        6.0787600000       10.9535000000 N         0.0000000000         0.0000000000       103.5189139794       49.0650381890     -209.7598162869
atom         9.2724800000        4.6959500000        6.9197400000 N         0.0000000000         0.0000000000       -89.0292097283      187.8163478807       94.8504833654
atom         8.8234100000        5.6070200000        7.3821100000 N         0.0000000000         0.0000000000        87.8028528519     -191.8520393141      -94.3111818968
atom         7.4377100000       10.2700000000        6.1090600000 N         0.0000000000         0.0000000000        38.9594361140      -87.1667823248      216.1672135001
atom         7.6218600000        9.8639800000        7.1332500000 N         0.0000000000         0.0000000000       -34.8254197903       85.0166786114     -217.0689569336
atom         7.0423400000        7.1411300000        1.5698300000 N         0.0000000000         0.0000000000       117.0629255744      195.6365945823      -71.1696301358
atom         7.5978100000        8.0529700000        1.2373300000 N         0.0000000000         0.0000000000      -119.4993195598     -195.1897398483       71.1283922592
atom         4.5829500000        1.3427500000        3.5905500000 N         0.0000000000         0.0000000000       -30.6129016666      228.1896054753      -67.1800054344
atom         4.4703400000        2.4178500000        3.3032000000 N         0.0000000000         0.0000000000        22.0055527746     -227.6469705364       57.9545367726
atom         9.6679800000        9.7309900000        8.9628700000 N         0.0000000000         0.0000000000       -64.5647271541     -115.0758200207      194.7920723610
atom         9.3528700000        9.1838600000        9.8854600000 N         0.0000000000         0.0000000000        67.6072240704      116.1971566106     -194.9868740683
atom         6.9870000000        5.1371000000        3.6326500000 N         0.0000000000         0.0000000000       -23.3576373716     -226.1289793383      -50.0354629881
atom         6.8767800000        4.0499700000        3.3966600000 N         0.0000000000         0.0000000000        17.4671050657      230.5716072226       47.8249580350
atom         6.6432000000        9.3192700000        3.5548400000 N         0.0000000000         0.0000000000       -73.4475951088      198.4632848990     -103.8055682178
atom         6.3004400000       10.2566000000        3.0507900000 N         0.0000000000         0.0000000000        72.3342415972     -200.0804578253      105.3057628941
atom         0.7327300000        1.8024600000        5.2823700000 N         0.0000000000         0.0000000000      -210.9301416716      -99.1335933851       45.4347509163
atom        10.7480000000        1.3334600000        5.5237000000 N         0.0000000000         0.0000000000       207.3118807863       96.0115612473      -51.6641848287
atom         1.7184700000        2.9897700000        2.9102200000 N         0.0000000000         0.0000000000        85.0304354126      123.3113120957     -186.4711310639
atom         2.1126700000        3.5762500000        2.0439800000 N         0.0000000000         0.0000000000       -79.8609305497     -126.1315648698      185.3916090152
atom         7.5765400000        1.8305200000        1.7325500000 N         0.0000000000         0.0000000000      -224.7883747092      -71.6095072209      -33.6005444525
atom         6.5241000000        1.4853800000        1.5711000000 N         0.0000000000         0.0000000000       226.6600609439       73.8124024685       32.2157552472
atom         8.8552800000        7.5383300000        3.7736700000 N         0.0000000000         0.0000000000       100.3724173165     -160.7650553625     -131.4019202587
atom         9.3375800000        6.7666400000        3.1274400000 N         0.0000000000         0.0000000000      -100.3250814233      157.7366368846      137.2440627441
atom        10.2729000000        9.2127900000        1.7071000000 N         0.0000000000         0.0000000000        86.1457949101     -182.0553759448     -122.7111220536
atom        10.6816000000        8.3505500000        1.1251200000 N         0.0000000000         0.0000000000       -86.0118330947      182.1469032118      123.6033366784
atom         1.4661300000        3.2722100000       10.2927000000 N         0.0000000000         0.0000000000      -124.4016774721      197.2743185553      -32.6963246933
atom         0.8611900000        4.1986800000       10.1306000000 N         0.0000000000         0.0000000000       127.7353019532     -196.1992530278       33.1957699782
atom         5.6414500000        4.6455700000        6.3247000000 N         0.0000000000         0.0000000000       217.0230083031      -91.6004702270      -12.8960724784
atom         6.6715300000        4.2144800000        6.2610500000 N         0.0000000000         0.0000000000      -221.1042364869       90.3721394206       14.7190855378
atom        10.7847000000        4.4853300000       12.6168000000 N         0.0000000000         0.0000000000        87.0803391087      217.7718267700      -38.9583378078
atom         0.2149500000        5.5016700000       12.4401000000 N         0.0000000000         0.0000000000       -91.6107555008     -215.2091279174       37.9730861311
atom         6.7630600000        4.3014400000       11.6757000000 N         0.0000000000         0.0000000000         0.9119206120      126.6662719133     -203.3943586700
atom         6.7728900000        4.8864500000       10.7236000000 N         0.0000000000         0.0000000000         2.8161178362     -123.8846632387      203.7478589747
atom         3.0361900000        3.7678400000       16.3723000000 N         0.0000000000         0.0000000000        17.8047199027      165.9956584062     -166.3798370957
atom         3.1085800000        4.5623100000       15.5904000000 N         0.0000000000         0.0000000000       -13.4443936910     -165.4584251571      167.2765055242
atom         0.5621600000        8.1539600000       15.1993000000 N         0.0000000000         0.0000000000        77.5102066330      -71.5259773360      208.1834221965
atom         0.9334300000        7.8181900000       16.1982000000 N         0.0000000000         0.0000000000       -78.6005981183       67.5634120888     -213.4325917404
atom         3.2193200000        7.8231400000       18.3103000000 N         0.0000000000         0.0000000000        15.9922316305       94.3903166136      213.8315850075
atom         3.2988400000        8.2818300000       19.3270000000 N         0.0000000000         0.0000000000       -16.7642183073      -94.6418832008     -215.6489043437
atom         0.9129000000        3.0351600000       18.3030000000 N         0.0000000000         0.0000000000      -183.4977353793      -42.9664299332      141.4319454460
atom         0.0306800000        2.8238500000       18.9542000000 N         0.0000000000         0.0000000000       185.7803209349       48.2955441864     -137.2328159447
atom         2.6892500000        0.9906000000       17.9062000000 N         0.0000000000         0.0000000000       124.9631529657      -27.3380454194     -200.3078844973
atom         3.2828800000        0.8553900000       16.9685000000 N         0.0000000000         0.0000000000      -128.5321318897       31.5228850192      198.2845790836
atom         2.2927300000        9.6205100000       21.9445000000 N         0.0000000000         0.0000000000      -122.4853632472      146.6925453192      145.0015358750
atom         1.7308800000       10.3027000000        0.6298800000 N         0.0000000000         0.0000000000       120.2286582740     -146.7646445466     -147.4893898433
atom         4.4158800000        6.2588200000       20.5833000000 N         0.0000000000         0.0000000000       133.7423659918     -128.7624854603     -143.0172765523
atom         5.0642800000        5.6491800000       19.9071000000 N         0.0000000000         0.0000000000      -136.7924815826      130.0724133962      142.2779710019
atom         1.5516700000        5.7172000000       17.8782000000 N         0.0000000000         0.0000000000      -159.8242071771      -10.4695916385      169.1703272370
atom         0.7742900000        5.6579200000       18.6786000000 N         0.0000000000         0.0000000000       162.4267758842       14.1546820103     -166.0770102624
atom         1.4525000000        6.9491000000       21.1709000000 N         0.0000000000         0.0000000000      -107.6923185781      159.3785480846     -134.6638407919
atom         0.9357900000        7.7075600000       20.5321000000 N         0.0000000000         0.0000000000       110.5869051875     -160.8233507736      138.0994130104
atom         5.0540600000       10.9652000000       18.8647000000 N         0.0000000000         0.0000000000       -23.3917176241     -184.1490349576     -141.0524420866
atom         4.9216800000       10.0898000000       18.1844000000 N         0.0000000000         0.0000000000        28.4260180374      182.1977220618      142.8924853838
atom         3.2168900000        9.3101700000       15.9355000000 N         0.0000000000         0.0000000000       110.1608785497       61.3452305612     -199.3290812574
atom         3.7244900000        9.5926600000       14.9805000000 N         0.0000000000         0.0000000000      -107.4074626506      -61.6773636855      201.2868405170
atom         6.8117400000        7.3148400000       17.1296000000 N         0.0000000000         0.0000000000      -154.6582167940       23.0500095764      176.2646721981
atom         6.0717700000        7.4299000000       17.9604000000 N         0.0000000000         0.0000000000       157.4826229409      -23.1018357265     -179.1204084360
atom         6.3356400000        2.6683300000       19.8164000000 N         0.0000000000         0.0000000000        -3.8116124199     -121.6138307110      204.6478105056
atom         6.3164700000        2.0922000000       20.7753000000 N         0.0000000000         0.0000000000         4.4602423235      123.2481596477     -206.2973617098
atom         4.6986000000        6.7505300000       15.7575000000 N         0.0000000000         0.0000000000        70.5161591535       87.8113606371     -206.1512509575
atom         5.0495000000        7.1738500000       14.7849000000 N         0.0000000000         0.0000000000       -72.3484833558      -88.3352708642      205.0256721604
atom         0.8422400000        9.9967600000       17.2148000000 N         0.0000000000         0.0000000000        37.4103287689      -48.9606712983      229.5491362446
atom         1.0168500000        9.7405100000       18.2886000000 N         0.0000000000         0.0000000000       -37.2633891469       56.6876505030     -222.3077997945
atom         9.4183100000       10.2648000000       15.1988000000 N         0.0000000000         0.0000000000      -116.9751583627      181.9960918171      -95.0576681586
atom         8.8554500000        0.1215700000       14.7517000000 N         0.0000000000         0.0000000000       120.4397353011     -182.4826835458       93.9309581225
atom         3.6045900000        1.0169700000       20.8930000000 N         0.0000000000         0.0000000000       135.7887660197     -134.3004081282      139.3939241829
atom         4.2487100000        0.4025100000       21.5690000000 N         0.0000000000         0.0000000000      -138.9932156108      127.6856055326     -143.7335317240
atom         6.8058000000       10.3791000000       21.9916000000 N         0.0000000000         0.0000000000        27.0532851600        1.7023867505     -234.4165714392
atom         6.9193200000       10.3926000000       20.8794000000 N         0.0000000000         0.0000000000       -23.7253176660       -0.4419704798      234.7659589618
atom         4.0569100000        2.9847800000       18.8534000000 N         0.0000000000         0.0000000000      -145.7265269665      173.3612908470       72.4224781211
atom         3.3761700000        3.8054400000       19.1909000000 N         0.0000000000         0.0000000000       142.4809630859     -174.9589374731      -70.2078473782
atom         4.6801300000        8.7656800000        1.2291900000 N         0.0000000000         0.0000000000        23.1733290607      -19.6154897213     -236.4714039188
atom         4.7911600000        8.6826300000        0.1192200000 N         0.0000000000         0.0000000000       -24.1852117006       17.6886376632      236.7185323679
atom         6.1104800000        1.6569200000       16.7929000000 N         0.0000000000         0.0000000000       101.7609079456       -6.8310759478     -211.8820263961
atom         6.5800200000        1.6215000000       15.7778000000 N         0.0000000000         0.0000000000       -93.5092642890        5.7703773934      218.9907331495
atom        10.0228000000        7.7807800000       18.3133000000 N         0.0000000000         0.0000000000      -102.9458595673       93.9310836832     -191.7941967417
atom         9.5392200000        8.2275800000       17.4095000000 N         0.0000000000         0.0000000000       101.5686072242      -95.2645915698      190.9857003163
atom         8.7925600000        3.1305300000       15.4726000000 N         0.0000000000         0.0000000000       151.7931685213      -59.6723419205     -170.8065143097
atom         9.5039600000        2.8564300000       14.6547000000 N         0.0000000000         0.0000000000      -148.9020401175       56.4933269208      170.5469865563
atom        10.8596000000        0.8659900000       20.8286000000 N         0.0000000000         0.0000000000       208.2932024015      -45.6655189449      -98.7437726627
atom         0.8628400000        0.6537700000       20.3852000000 N         0.0000000000         0.0000000000      -208.4224771360       42.7287362430       91.5511852323
atom         7.6016000000        7.6635400000       19.8132000000 N         0.0000000000         0.0000000000      -139.8793999542      -26.5751146953      189.4051586957
atom         6.9338600000        7.5312600000       20.6986000000 N         0.0000000000         0.0000000000       138.2091405265       27.6699793273     -185.2664467328
atom         2.0364700000        0.3544600000       14.2973000000 N         0.0000000000         0.0000000000      -205.4023870013     -118.8619169828        2.2266507814
atom         1.0741200000       10.7864000000       14.3131000000 N         0.0000000000         0.0000000000       202.9142741667      119.0775765121       -2.5784280343
atom         2.2783500000        7.6232500000       12.8935000000 N         0.0000000000         0.0000000000        49.2346922149     -100.0834465491      205.8045332057
atom         2.5157400000        7.1486200000       13.8770000000 N         0.0000000000         0.0000000000       -52.6236992759       99.0450734944     -208.5192170745
atom         4.1631700000        3.6092000000       10.8413000000 N         0.0000000000         0.0000000000        14.8031725595     -181.6213884321      153.5916243324
atom         4.2332400000        2.7550600000       11.5588000000 N         0.0000000000         0.0000000000       -16.4494446321      188.4069237890     -147.8723941821
atom         0.5365800000        5.2535100000       15.1540000000 N         0.0000000000         0.0000000000       -69.6880386519     -154.7741580534      165.6195406698
atom         0.2146400000        4.5171500000       15.9313000000 N         0.0000000000         0.0000000000        67.4718112004      156.6398529923     -164.0317741817
atom         8.8803600000        3.5107900000       20.6575000000 N         0.0000000000         0.0000000000        92.2762434240      -89.4004496936      203.2648401776
atom         9.3045000000        3.0963000000       21.6063000000 N         0.0000000000         0.0000000000       -90.8290097620       88.3954225086     -203.3164294879
atom         0.1820300000        1.5721000000       12.1743000000 N         0.0000000000         0.0000000000      -202.2434158431     -108.4242416920       71.2021224901
atom        10.2410000000        1.0598300000       12.4932000000 N         0.0000000000         0.0000000000       200.4028632398      107.6920089758      -64.1778276435
atom         8.6371700000        1.2705600000       19.0127000000 N         0.0000000000         0.0000000000       -34.9137136303      148.7551872931     -179.4368132350
atom         8.4720300000        1.9762800000       18.1615000000 N         0.0000000000         0.0000000000        36.4938634144     -150.4626982520      178.2497093658
atom         4.4957700000        5.1586600000       13.1713000000 N         0.0000000000         0.0000000000        -2.3244696835      165.9080746159     -171.2336068039
atom         4.4897400000        5.9388600000       12.3707000000 N         0.0000000000         0.0000000000         1.8674552650     -168.1023845408      169.3182616329
atom         9.6582900000        6.3023300000       20.9696000000 N         0.0000000000         0.0000000000      -102.7704284880      -47.5720864842      207.4985830558
atom         9.1762100000        6.0787600000       21.9535000000 N         0.0000000000         0.0000000000       103.5586314565       49.0835748250     -209.8494797179
atom         9.2724800000        4.6959500000       17.9197000000 N         0.0000000000         0.0000000000       -89.0431585925      187.8431693082       94.8713466808
atom         8.8234100000        5.6070200000       18.3821000000 N         0.0000000000         0.0000000000        87.8161715363     -191.8795525581      -94.3322223645