begin
comment generated by PY
lattice        19.9650000000         0.0000000000         0.0000000000
lattice         0.0000000000        19.9650000000         0.0000000000
lattice         0.0000000000         0.0000000000        16.4367122000
atom         5.5788800000        9.3667900000        1.5830100000 H         0.0000000000         0.0000000000        82.4395483390      -18.8215342375       23.3198949024
atom         7.3693500000        9.1784400000        1.4130100000 H         0.0000000000         0.0000000000       -77.3728974308        2.5112564523       31.3303929789
atom         8.0129100000        8.3719400000        4.5116100000 H         0.0000000000         0.0000000000       -28.9086317033       16.7719668094     -123.7749585551
atom        12.9823000000        9.3022900000        9.2458200000 H         0.0000000000         0.0000000000       -55.4253446722       63.8776347923       17.5201125285
atom        14.3637000000       17.5434000000        8.7521100000 H         0.0000000000         0.0000000000        48.6209565567       20.5524291147       35.0811604086
atom        15.7053000000       18.4896000000        8.6114300000 H         0.0000000000         0.0000000000       -30.3836451965      -31.0442133667       34.3389107264
atom        15.8087000000       17.1838000000        9.5553800000 H         0.0000000000         0.0000000000       -41.6575969111       38.3714218828      -20.2427290336
atom        14.9572000000       18.4731000000       10.0496000000 H         0.0000000000         0.0000000000         6.0231449874      -34.8057152758      -49.5411537215
atom        17.2550000000        2.8698600000        8.6249500000 H         0.0000000000         0.0000000000       -45.3097599373       71.9365654477        4.7093378694
atom        17.3115000000        4.5802800000        8.6857400000 H         0.0000000000         0.0000000000       -54.2473289050      -69.9393205342        4.6321241281
atom        18.5135000000        4.2701700000       13.4285000000 H         0.0000000000         0.0000000000       -61.5136969090       40.1169623656      -72.8713898231
atom        14.9241000000        4.8672600000       10.4335000000 H         0.0000000000         0.0000000000        76.3436783465      -11.8710014784       31.6802634993
atom        16.1867000000        1.9829800000       11.2556000000 H         0.0000000000         0.0000000000       -38.1441777808       66.1688260667      -85.8940474898
atom        15.7996000000        3.7486700000        8.3966000000 H         0.0000000000         0.0000000000        74.7581051900        5.6486860024       23.8445853418
atom        16.0824000000        5.0940300000       11.7024000000 H         0.0000000000         0.0000000000       -25.5970732796      -32.1225539049      -72.7076669734
atom        17.8151000000       16.7893000000        0.1198600000 H         0.0000000000         0.0000000000        24.0087386710      -62.9133497484      -53.3198959513
atom        13.9892000000        4.9770600000        6.6801600000 H         0.0000000000         0.0000000000        47.6151790018       42.9906524816       51.6439924455
atom         0.2101800000       19.7270000000       10.8707000000 H         0.0000000000         0.0000000000       -61.1947644475      -25.9989102754       48.5356254919
atom         2.0292900000        0.7930400000        5.8585700000 H         0.0000000000         0.0000000000        55.4376456007      -89.0387302635       64.2350652501
atom         3.1367400000       19.7648000000        5.9287700000 H         0.0000000000         0.0000000000       -92.6924693377       46.0889297771       50.7813845507
atom        16.7995000000       11.9384000000        1.4903300000 H         0.0000000000         0.0000000000       -40.5767621771      -70.7471515764       79.9262876396
atom        16.9205000000       11.3494000000        2.8507000000 H         0.0000000000         0.0000000000       -55.9176315276        6.6947691924      -99.4797461545
atom        15.2221000000        1.6218100000        6.8889800000 N         0.0000000000         0.0000000000        18.2291432438       22.4852821151     -192.1789474934
atom        15.3104000000        1.7236200000        5.7734500000 N         0.0000000000         0.0000000000       -16.3592597629      -17.0162777229      194.9083771048
atom         6.2780900000       19.1177000000       13.3146000000 N         0.0000000000         0.0000000000        49.6228856658       61.7889146778      229.7922860293
atom         6.5063500000       19.4050000000       14.3765000000 N         0.0000000000         0.0000000000       -50.1008888256      -61.4784915806     -229.0728132438
atom         6.5059000000        9.1393400000        1.9497200000 N         0.0000000000         0.0000000000        23.5134480976      -61.3453894316      189.1125199127
atom         2.8969300000        6.3389000000       14.6797000000 N         0.0000000000         0.0000000000       -68.8099516095       14.6022354839     -236.7829399949
atom         2.5833100000        6.4057100000       13.6020000000 N         0.0000000000         0.0000000000        69.4237759626      -14.6356676068      236.7270499727
atom        12.3396000000       10.0715000000        9.4491300000 N         0.0000000000         0.0000000000      -267.0123604762     -133.0065296914       93.3138460307
atom        12.6001000000       17.3789000000        1.2248400000 N         0.0000000000         0.0000000000        83.4749331037       87.8493107001      204.0404878607
atom        12.9957000000       17.7940000000        2.1914800000 N         0.0000000000         0.0000000000       -83.0850427711      -87.5302526580     -204.1363250257
atom        15.1726000000       17.9033000000        9.2432800000 N         0.0000000000         0.0000000000        17.1711183871        8.6268006778        2.8016443192
atom        15.8812000000        4.7669100000       10.7590000000 N         0.0000000000         0.0000000000        86.5217293499     -134.6063354006      -44.9865560339
atom        16.7316000000        3.7364500000        8.8647500000 N         0.0000000000         0.0000000000        -8.4577800131      -24.0523619836      142.5295284790
atom        18.1022000000       16.0688000000       15.8877000000 N         0.0000000000         0.0000000000         7.2471747400     -273.1837083525      155.9013118825
atom         5.0438500000        2.1055000000       11.3365000000 N         0.0000000000         0.0000000000       241.3788259907       14.4858415630      -48.8050435286
atom         6.1447500000        2.1707700000       11.1156000000 N         0.0000000000         0.0000000000      -241.4698896043      -14.1098665698       48.2829731883
atom        13.2767000000       13.3004000000        1.6403600000 N         0.0000000000         0.0000000000       126.4394436011      136.6985192516     -163.1386466678
atom        13.8501000000       13.9213000000        0.8998300000 N         0.0000000000         0.0000000000      -125.8883909872     -137.1308206991      163.3922449374
atom        11.2444000000        7.8973100000        2.0588900000 N         0.0000000000         0.0000000000       -94.9618645804      -67.4831202984     -217.1623757449
atom        10.8118000000        7.5912200000        1.0680700000 N         0.0000000000         0.0000000000        94.7293822155       67.6237440645      217.3554682183
atom         4.5109600000       16.1711000000       12.6250000000 N         0.0000000000         0.0000000000      -228.8987081045        5.6471056290      -79.8879440766
atom         3.4496100000       16.2004000000       12.2560000000 N         0.0000000000         0.0000000000       229.5261222335       -6.6940614906       80.6192115068
atom         5.1534100000       13.8367000000       16.2459000000 N         0.0000000000         0.0000000000       199.9817932608      -13.9742725546      141.6764690216
atom         6.0674400000       13.7722000000        0.4596700000 N         0.0000000000         0.0000000000      -199.6135056412       14.2846925376     -142.2100253151
atom        17.8009000000        1.1209500000        1.8197700000 N         0.0000000000         0.0000000000      -154.6717579294      -47.7251363053      172.9011772527
atom        17.0669000000        0.8955000000        2.6411200000 N         0.0000000000         0.0000000000       154.4800428212       46.7748821100     -173.2377019646
atom        10.6849000000        0.5333200000        1.3219400000 N         0.0000000000         0.0000000000       -47.2095675137       61.8052945585      234.2781671791
atom        10.4699000000        0.8151900000        2.3890800000 N         0.0000000000         0.0000000000        47.1057875756      -61.9160654674     -234.3562097482
atom        14.5719000000        5.5059500000        7.3326800000 N         0.0000000000         0.0000000000       -76.0947544098      277.8200033047      -39.2709957381
atom        19.4339000000       19.3976000000       11.4887000000 N         0.0000000000         0.0000000000      -258.9804486696      -53.1899867678     -173.0442380051
atom         2.8059700000       18.6464000000       14.9272000000 N         0.0000000000         0.0000000000         6.2590556861      193.6681163096     -153.6686540329
atom         2.8340700000       19.5266000000       14.2282000000 N         0.0000000000         0.0000000000        -6.2457136243     -193.5972822282      153.6551410201
atom         9.3263000000       17.1890000000        2.3760100000 N         0.0000000000         0.0000000000       -25.9949819974       94.3938887472      220.6746310549
atom         9.2043500000       17.6292000000        3.4028700000 N         0.0000000000         0.0000000000        26.1995665547      -94.4595592030     -220.7469952917
atom         1.3458200000        2.9656500000       13.7407000000 N         0.0000000000         0.0000000000      -190.0131283530       94.7672242591       86.8940348059
atom         0.4141100000        3.4307400000       14.1657000000 N         0.0000000000         0.0000000000       179.3399590612      -90.0911687745      -91.1340226023
atom         9.2311800000       12.6411000000       16.1617000000 N         0.0000000000         0.0000000000       172.4107426166       79.3900548327     -153.5332750614
atom        10.0258000000       13.0101000000       15.4581000000 N         0.0000000000         0.0000000000      -172.8086629157      -79.3714295857      152.6964740973
atom         1.3308600000        3.1964000000        8.2930500000 N         0.0000000000         0.0000000000        66.9754154717     -138.3838004264      187.6744252004
atom         1.6396600000        2.5557600000        9.1643000000 N         0.0000000000         0.0000000000       -66.4251638464      137.6812576351     -187.8954175275
atom        17.7799000000        0.8415800000       14.2485000000 N         0.0000000000         0.0000000000      -187.0839880067       19.0945328345     -111.0629727076
atom        16.8188000000        0.9370600000       13.6740000000 N         0.0000000000         0.0000000000       186.5182701768      -17.4035915484      107.5865944477
atom         6.3910100000        3.2269000000       14.6593000000 N         0.0000000000         0.0000000000      -226.9223602402       59.9786752895       54.1080857294
atom         5.3322100000        3.5072000000       14.9123000000 N         0.0000000000         0.0000000000       226.8793405004      -59.7978043775      -54.0921167090
atom         5.3007300000        9.4240100000       11.5702000000 N         0.0000000000         0.0000000000      -228.0848392513      -55.2812049858       64.1593546471
atom         4.2461000000        9.1681100000       11.8617000000 N         0.0000000000         0.0000000000       228.2554236870       55.4195749004      -63.2557253006
atom         4.8262800000       12.8442000000        4.7655300000 N         0.0000000000         0.0000000000        18.4235080076     -157.5260180205     -188.6110022349
atom         4.9132800000       12.1295000000        3.9029400000 N         0.0000000000         0.0000000000       -18.8130251806      156.8882945279      188.4480859741
atom        13.5174000000       10.0129000000       16.4344000000 N         0.0000000000         0.0000000000      -217.6175699768      103.3903154887      -59.6589097276
atom        12.5317000000       10.4825000000       16.1656000000 N         0.0000000000         0.0000000000       217.6637418072     -103.4301839617       59.7166676268
atom        11.1948000000        7.8859200000       13.6680000000 N         0.0000000000         0.0000000000       142.1196341985      184.2361482650      -83.2331773740
atom        11.8419000000        8.7236100000       13.2891000000 N         0.0000000000         0.0000000000      -142.5200336635     -183.9916299394       82.9967305107
atom         5.7653800000       17.5759000000        1.9012100000 N         0.0000000000         0.0000000000        77.5571911371      -13.9408176203     -228.6767659668
atom         6.1257300000       17.5097000000        0.8391800000 N         0.0000000000         0.0000000000       -77.6441697463       14.4257087312      228.5750823156
atom         5.4313900000       10.6124000000        7.5145100000 N         0.0000000000         0.0000000000      -146.8347323406     -198.3459413896      -17.6269739204
atom         4.7635100000        9.7116500000        7.4372200000 N         0.0000000000         0.0000000000       146.7452328120      198.2752598672       17.3549062805
atom         1.0112000000       12.7044000000        2.6154800000 N         0.0000000000         0.0000000000       209.0137234113     -104.4033180355      -49.4033886241
atom         1.9914800000       12.2113000000        2.3820800000 N         0.0000000000         0.0000000000      -209.3010938978      103.5018423153       49.1828991280
atom         0.4839200000       14.6861000000        5.2616800000 N         0.0000000000         0.0000000000      -198.6705759596      121.1266675803       11.2293037744
atom        19.4934000000       15.2741000000        5.3116100000 N         0.0000000000         0.0000000000       198.2215992633     -122.1834018473      -11.2335689157
atom        11.5277000000       14.9209000000        4.1977400000 N         0.0000000000         0.0000000000       215.7513796542       84.3115242761       67.3929904010
atom        12.5334000000       15.3118000000        4.5115600000 N         0.0000000000         0.0000000000      -215.1105335299      -84.2651181543      -67.7961087296
atom         2.8447300000       15.6890000000        2.6282200000 N         0.0000000000         0.0000000000      -137.0362184572      179.9902825736      -92.0087693517
atom         2.2141800000       16.5184000000        2.2069600000 N         0.0000000000         0.0000000000       136.3306105045     -179.8536002209       92.1900408993
atom        12.5200000000        6.4446100000       10.3781000000 O         0.0000000000         0.0000000000      -132.3755672478       -2.3369043191     -155.8030565349
atom        11.0376000000        6.4227700000        8.5305300000 O         0.0000000000         0.0000000000       126.7214451489        1.1914157397      166.5393068786
atom        18.1317000000       11.8169000000        5.1390200000 O         0.0000000000         0.0000000000        38.7896697238       49.1010138509      195.1380486834
atom        18.5597000000       12.3632000000        7.4021600000 O         0.0000000000         0.0000000000       -34.7555960289      -46.7134683376     -200.2563943107
atom         5.6874900000        8.6198000000        4.0220400000 O         0.0000000000         0.0000000000       126.0426366582       19.5244957851     -110.1446666319
atom         7.9134900000        8.4982700000        3.5422800000 O         0.0000000000         0.0000000000       -93.9964116465        9.1912287743       77.3834165486
atom         1.8611100000        8.6282500000        3.1709500000 O         0.0000000000         0.0000000000       108.8221938084       25.8229948738     -178.4536878422
atom         3.1178500000        8.9056400000        1.1844300000 O         0.0000000000         0.0000000000      -110.8099175862      -22.2718197701      166.8794325370
atom        10.1088000000        9.5812000000       10.1927000000 O         0.0000000000         0.0000000000       171.2835099340       40.6153381671      -54.4131018809
atom        19.4655000000        5.1245400000       11.2050000000 O         0.0000000000         0.0000000000      -137.2672923879     -101.7862953285       43.9977961785
atom        15.8200000000        2.4886000000       10.5063000000 O         0.0000000000         0.0000000000       111.8167167040       32.7814952714       53.8762555143
atom        17.9138000000        3.4677900000       10.8107000000 O         0.0000000000         0.0000000000       -71.6360881775      107.5795581414        7.6522477573
atom        17.8783000000        4.6043400000       12.7595000000 O         0.0000000000         0.0000000000       126.9796640961      -56.9586339744      -36.2297116972
atom        18.2814000000       13.7855000000        0.1719200000 O         0.0000000000         0.0000000000        -8.6030257230      171.6577051583      -59.6588620395
atom         5.0185000000        2.5139100000        7.5405500000 O         0.0000000000         0.0000000000       -19.7518134964      179.4462336902       93.3778349076
atom         4.7676200000        4.6101900000        8.6115100000 O         0.0000000000         0.0000000000        22.8683523076     -186.3761696472      -92.9351193322
atom        16.1867000000       14.7832000000        3.7096000000 O         0.0000000000         0.0000000000       -31.3502164442       -9.8462356844      206.7803616678
atom        15.8435000000       14.6377000000        6.0494700000 O         0.0000000000         0.0000000000        29.9360227605       13.9608001194     -203.3764116261
atom         6.6427500000        5.2569500000        5.4371300000 O         0.0000000000         0.0000000000       140.5873847900      -69.6270305285      137.4666085228
atom         8.2441900000        4.4568600000        6.9893700000 O         0.0000000000         0.0000000000      -139.5947146410       71.8830385090     -134.5287708490
atom         1.6936800000       15.0017000000       15.2744000000 O         0.0000000000         0.0000000000      -116.2616603563      -51.9468865200     -160.1760642438
atom         0.3407700000       14.3975000000       13.4278000000 O         0.0000000000         0.0000000000       119.9895507446       53.3801109559      162.6440345401
atom        19.8170000000       18.7951000000        4.0199000000 O         0.0000000000         0.0000000000      -106.8259613906     -114.6812965758     -134.1009512425
atom        18.6231000000       17.4840000000        2.4534100000 O         0.0000000000         0.0000000000       101.0720752936      113.7218807683      138.2758543269
atom         8.2221400000        8.3056500000        6.8971700000 O         0.0000000000         0.0000000000       -81.5128419087      -73.0615953406      175.1144951701
atom         7.2809800000        7.4525800000        8.8947600000 O         0.0000000000         0.0000000000        81.7919514299       76.1120807552     -174.3664728813
atom        19.4212000000       18.1598000000        7.7042000000 O         0.0000000000         0.0000000000       -59.1027331412      200.7042548200      -22.9702034066
atom        18.7433000000        0.4534300000        7.4818000000 O         0.0000000000         0.0000000000        58.7703055356     -187.7318140488       14.4334258375
atom         1.0551900000       11.3006000000       15.4799000000 O         0.0000000000         0.0000000000      -124.7046344313     -100.9832203107      128.4517351465
atom        19.5708000000       10.1259000000        0.4993000000 O         0.0000000000         0.0000000000       128.8016297459      101.4721767081     -124.0332823981
atom        14.3198000000        7.8932500000        7.4148800000 O         0.0000000000         0.0000000000        22.8805850821     -184.3850033300       -5.3642084846
atom        17.2568000000       18.8470000000       10.6527000000 O         0.0000000000         0.0000000000       159.6877138685       39.0322788266       64.3841321208
atom         1.8211400000       11.1687000000        6.0055200000 O         0.0000000000         0.0000000000        51.7052831167      134.0142743274      143.2043782988
atom         2.4261800000       12.7212000000        7.6859700000 O         0.0000000000         0.0000000000       -52.5569520467     -136.3381769133     -148.3972575329
atom         8.3289900000       10.2564000000       13.4688000000 O         0.0000000000         0.0000000000      -166.2356313161       28.5496947249      121.1077500538
atom         6.4452800000       10.5574000000       14.8700000000 O         0.0000000000         0.0000000000       160.8033279546      -23.0259570663     -123.9789969012
atom         6.9422000000        1.1161100000        1.1266400000 O         0.0000000000         0.0000000000      -202.3657083012      -16.4047087984      -25.1433240615
atom         4.5981700000        0.9409500000        0.8556700000 O         0.0000000000         0.0000000000       205.1315528477       13.8116365966       19.7771837911
atom         5.7933400000        5.7906900000       12.0249000000 O         0.0000000000         0.0000000000        54.5280423454       98.6182577588      173.0187271223
atom         6.4318700000        6.9226000000       14.0029000000 O         0.0000000000         0.0000000000       -56.5481220861      -97.8994866886     -171.9895717409
atom        14.5445000000        0.3812600000        0.0173400000 O         0.0000000000         0.0000000000       121.7255567527     -165.0795786617       -1.1941603147
atom        15.9473000000       18.4427000000       16.4224000000 O         0.0000000000         0.0000000000      -121.2359505429      165.1479990404        4.1349331269
atom         2.3854500000        0.1071900000        6.4290400000 O         0.0000000000         0.0000000000        35.9416339335       44.2740626251     -113.6978727974
atom        16.3715000000       11.3207000000        2.0746500000 O         0.0000000000         0.0000000000        95.4768626131       65.2366280246       19.0565796079
atom         7.8287100000       15.8057000000       14.4149000000 O         0.0000000000         0.0000000000       -54.9216345455     -171.1880543581     -101.7098361308
atom         7.2268600000       13.8465000000       13.2342000000 O         0.0000000000         0.0000000000        49.3697731692      167.9928477335      103.1586893650
atom        14.3041000000       18.0667000000        6.4431100000 O         0.0000000000         0.0000000000       169.0428642727       15.2605976401     -101.0888540427
atom        16.3728000000       18.2529000000        5.3147900000 O         0.0000000000         0.0000000000      -175.5560196256      -16.0274204396       87.6643842742
atom         3.6689200000       12.5579000000       13.0523000000 O         0.0000000000         0.0000000000        70.7762233724       26.6458930123     -189.2112933960
atom         4.4879300000       12.8693000000       10.8535000000 O         0.0000000000         0.0000000000       -71.3425349199      -28.2010248620      193.3997523220
atom         5.4240000000        0.3655500000        4.5163200000 O         0.0000000000         0.0000000000       178.9728107549       96.7842975057       21.1961814768
atom         7.4788300000        1.5048800000        4.8012000000 O         0.0000000000         0.0000000000      -179.4386051600     -100.7495922816      -26.6959578364
atom        11.7672000000        6.4324700000        9.4626300000 C         0.0000000000         0.0000000000         4.4869243417        1.3665450732      -10.6568785630
atom        18.3516000000       12.0943000000        6.2683300000 C         0.0000000000         0.0000000000        -3.3557190300       -1.8539904744        4.9958337955
atom         6.6081600000        8.7455700000        3.2325700000 C         0.0000000000         0.0000000000       -32.3430497916       32.5232350270      -86.0945434184
atom         2.4831100000        8.7701800000        2.1752500000 C         0.0000000000         0.0000000000         2.6644539928       -2.7230497070       12.2454015947
atom        11.2096000000        9.7926800000        9.8358200000 C         0.0000000000         0.0000000000       152.4473120685       27.4125084819      -57.2636266421
atom        18.5066000000        4.4923000000       11.5534000000 C         0.0000000000         0.0000000000        15.8997294010       24.3986294867        5.8832836795
atom        16.5429000000        3.6468900000       10.3143000000 C         0.0000000000         0.0000000000       -45.4696988560       75.7252723238       -5.5810515300
atom        18.1932000000       14.9139000000       16.2825000000 C         0.0000000000         0.0000000000       -21.7092379007      162.5997240912      -43.9224266370
atom         4.8939100000        3.5593700000        8.0804000000 C         0.0000000000         0.0000000000        -2.4018229432        6.6561963646       -0.3498834655
atom        16.0140000000       14.7152000000        4.8780500000 C         0.0000000000         0.0000000000         1.4926256438       -3.7694176697       -3.9410467522
atom         7.4448500000        4.8620400000        6.2137200000 C         0.0000000000         0.0000000000        -1.2365369170       -2.7490145034       -2.5995745498
atom         1.0192000000       14.7009000000       14.3512000000 C         0.0000000000         0.0000000000        -3.9227879270       -1.3755254868       -1.9033354934
atom        19.2150000000       18.1386000000        3.2427600000 C         0.0000000000         0.0000000000         4.9268614289        0.8154250829       -4.1178833311
atom         7.7487200000        7.8830900000        7.9000100000 C         0.0000000000         0.0000000000        -0.1746964109       -2.7830051317       -1.1477577098
atom        19.0852000000       19.2901000000        7.5821900000 C         0.0000000000         0.0000000000         1.9923527299      -12.9314872577        6.9827989595
atom         0.3348300000       10.7159000000       16.2135000000 C         0.0000000000         0.0000000000        -3.0601650829        0.2715941013       -4.1005535364
atom        14.4238000000        6.7221300000        7.3419900000 C         0.0000000000         0.0000000000         9.3512611677     -142.2347339040       -2.3296798851
atom        18.3391000000       19.1294000000       11.0351000000 C         0.0000000000         0.0000000000       160.9810650499       39.7647107878       61.0481140550
atom         2.1247900000       11.9468000000        6.8431600000 C         0.0000000000         0.0000000000         1.0698948890        3.0531494675        5.1357868843
atom         7.3840700000       10.4132000000       14.1641000000 C         0.0000000000         0.0000000000         5.4204161007       -5.3761555937        2.5246323519
atom         5.7714100000        1.0243400000        0.9829700000 C         0.0000000000         0.0000000000        -2.5968877244        1.7377491675        4.6398364174
atom         6.1095500000        6.3562400000       13.0141000000 C         0.0000000000         0.0000000000         1.2821384242       -0.7008446475       -1.1440717524
atom        15.2453000000       19.3955000000        0.0049500000 C         0.0000000000         0.0000000000        -0.2305301958        0.2990795182       -2.4722901970
atom         7.5203600000       14.8267000000       13.8280000000 C         0.0000000000         0.0000000000         4.6066982974        2.8533514822       -0.9043712969
atom        15.3347000000       18.1605000000        5.8625700000 C         0.0000000000         0.0000000000         6.1361001393        1.1277706377       11.6950644679
atom         4.0798100000       12.7120000000       11.9543000000 C         0.0000000000         0.0000000000         0.5147769154        1.7274337229       -4.3151105491
atom         6.4546100000        0.9322500000        4.6532900000 C         0.0000000000         0.0000000000         0.5870727846        4.2172445803        5.4917872129
energy    -35219.0243946938
charge 0
end
begin
comment generated by PY
lattice        22.1199193780         0.0000000000         0.0000000000
lattice         0.0000000000        22.1199193780         0.0000000000
lattice         0.0000000000         0.0000000000        18.2108063460
atom         4.9767400000        8.1136200000        3.5507900000 H         0.0000000000         0.0000000000         4.4233672949       -3.0193587249      -63.0517442632
atom         4.4305900000        8.2707600000        1.8928800000 H         0.0000000000         0.0000000000        95.3399500881      -53.7770827322       79.9426008772
atom         7.3409000000        7.2740700000        0.8601100000 H         0.0000000000         0.0000000000      -124.3815711869      -70.9242919268       36.8041467630
atom        14.3898600000        9.0185200000       11.5520500000 H         0.0000000000         0.0000000000        -5.9276325464       91.3995944213       13.6877677716
atom        15.7028600000       21.6766600000       12.6478500000 H         0.0000000000         0.0000000000        11.0337266717       -0.1627179310        7.9156723383
atom        16.9130600000       21.8649600000       11.2860500000 H         0.0000000000         0.0000000000       -23.1517977749      -24.9597953222      103.8628828242
atom        17.1926600000       20.9762600000       13.1199500000 H         0.0000000000         0.0000000000       -57.7170480456       60.5089934968      -57.5559375341