begin
comment generated by PY
lattice        19.9650000000         0.0000000000         0.0000000000
lattice         0.0000000000        19.9650000000         0.0000000000
lattice         0.0000000000         0.0000000000        16.4367121000
atom         3.5570600000        9.6548600000        9.6262300000 N         0.0000000000         0.0000000000        10.3246224349       12.9476444685       13.5582416588
atom         3.4023400000       10.6813000000       10.0471000000 N         0.0000000000         0.0000000000        18.0773711316      -18.4557255428        2.9078428621
atom         3.5506800000        2.0519600000        6.4061900000 N         0.0000000000         0.0000000000         5.9735582360        4.0064012483       12.0866789085
atom         3.6978500000        3.0737500000        6.8381500000 N         0.0000000000         0.0000000000        -4.6599833001      -22.7130716746      -11.9411899111
atom         5.0280700000       10.6896000000        2.9672500000 N         0.0000000000         0.0000000000        -6.0053126106       68.4430608045      -18.6661991645
atom         1.7693300000       10.4336000000        4.1924500000 N         0.0000000000         0.0000000000        10.2949896307        3.1642992166       -6.3747656503
atom         2.7560100000       10.8867000000        3.9024800000 N         0.0000000000         0.0000000000       -23.3999992788        2.1165201571        9.4746106351
atom         8.2205400000        6.1396400000       16.1475000000 N         0.0000000000         0.0000000000         1.0148947180       27.4187379203       -4.4103989890
atom         2.2786800000        6.2221800000       15.3425000000 N         0.0000000000         0.0000000000        15.9351615240        8.4534895692       -0.5745074326
atom         3.2209600000        6.8094200000       15.1927000000 N         0.0000000000         0.0000000000        -9.2280703163      -22.4295883579       -0.1040953137
atom        12.4757000000        3.8744700000        7.5528200000 N         0.0000000000         0.0000000000        10.7275132692       10.4371117881       20.2136311178
atom         3.8069900000        3.2705400000       10.5218000000 N         0.0000000000         0.0000000000        20.1485542513       -3.1844080144       -9.8066364054
atom         4.2253100000        3.3285600000        9.4858900000 N         0.0000000000         0.0000000000         0.7671321902      -15.2632693971       21.1266443347
atom         4.7828900000       14.3937000000       11.6835000000 N         0.0000000000         0.0000000000         1.8421226963       -2.6055651988      -23.0008903744
atom         4.8633200000       14.2723000000       10.5689000000 N         0.0000000000         0.0000000000        -1.0664581034        2.9813829497       22.9919198212
atom         1.2633000000        2.4252700000        2.2473400000 N         0.0000000000         0.0000000000         0.0517248092      -17.7230688719      -23.3545008176
atom         1.9569400000        2.1887000000        1.4007600000 N         0.0000000000         0.0000000000       -13.1999960454       -7.2941896995        5.9984636278
atom        19.9075000000        5.6644700000       13.7984000000 N         0.0000000000         0.0000000000       -18.9436175571       -2.2900507809        2.9239852457
atom        18.8208000000        5.5947100000       14.0686000000 N         0.0000000000         0.0000000000        12.6318302635        1.8060559992       -3.0690591533
atom        14.6264000000        1.6774400000       15.6031000000 N         0.0000000000         0.0000000000         4.1121569215       -3.5470812530       -5.8073147453
atom         1.7419000000        7.7998900000        8.5113900000 N         0.0000000000         0.0000000000       -12.4816138537        1.9244488527        5.9803380371
atom         1.2162300000        8.2615700000        9.3847200000 N         0.0000000000         0.0000000000        -6.0739869225      -10.8859622946      -12.3941913162
atom         1.9846300000        7.5491700000       12.6161000000 N         0.0000000000         0.0000000000       -11.0076989275        9.1288177177       -4.3237605101
atom         2.0887600000        8.4708000000       11.9908000000 N         0.0000000000         0.0000000000        -8.0356785603      -11.8151640162       10.1655968958
atom         1.3537800000        1.3575400000        8.5149100000 N         0.0000000000         0.0000000000         0.3240237601        1.4545440659        7.2555171605
atom         1.6875800000        1.8427000000        9.4678700000 N         0.0000000000         0.0000000000        -8.4841139769      -17.3056037713      -20.7696901120
atom         7.5747600000        7.0168300000       10.9461000000 N         0.0000000000         0.0000000000        -3.7073059406      -14.6513116345        2.7829469341
atom         7.2284400000        5.9720500000       11.1641000000 N         0.0000000000         0.0000000000         6.2537438943       14.6305340808       -3.6597320301
atom         3.9739500000        5.2523900000       12.8994000000 N         0.0000000000         0.0000000000        12.4197424034      -10.1279159603        2.6416780170
atom         4.9023200000        4.6294500000       12.8443000000 N         0.0000000000         0.0000000000        -4.2035458733        5.7038420664        3.1770978207
atom         7.0968700000        4.2787000000        4.1731900000 N         0.0000000000         0.0000000000         9.2061858563       -7.4264419424       10.0074707181
atom         7.4908800000        3.8922000000        5.1488200000 N         0.0000000000         0.0000000000        -2.5905758426        4.3145132303      -11.3320224748
atom         2.0924600000        7.8007400000        2.2721600000 N         0.0000000000         0.0000000000         0.2335802908        3.1611399215       -6.7974885559
atom         2.3428100000        7.8889000000        1.1843700000 N         0.0000000000         0.0000000000        -7.6361776265       -1.0419216803       24.2442920626
atom         2.5598800000        5.1411800000        8.1467800000 N         0.0000000000         0.0000000000       -17.7649698877       -2.4577470860        2.0859649310
atom         1.8076200000        4.4836600000        8.6505100000 N         0.0000000000         0.0000000000        -1.9075685316       12.5002237160      -15.0231860318
atom         4.6797400000       12.2306000000        7.0186100000 N         0.0000000000         0.0000000000        -8.4412905393       -3.6737759038       10.0016594600
atom         3.9814600000       11.8789000000        7.8236400000 N         0.0000000000         0.0000000000        20.5866816030       16.1314298481      -24.3444209621
atom         2.6429300000       18.0904000000        1.9963000000 N         0.0000000000         0.0000000000       -17.4591639605       11.2954253851      -11.3979295210
atom         1.8198600000       18.6177000000        1.4406200000 N         0.0000000000         0.0000000000        17.5176685708      -11.1768711077       11.5418504011
atom         1.8699900000        0.7265000000        4.4801000000 N         0.0000000000         0.0000000000       -13.9331831089      -20.2006941504        3.0001772964
atom         0.9994400000        0.0392200000        4.6478900000 N         0.0000000000         0.0000000000         9.3308511788        7.7904065716       -0.9493335800
atom        11.7923000000       19.3023000000        4.3123200000 N         0.0000000000         0.0000000000        -5.5997928738       12.0910604126      -18.8367088565
atom        11.5066000000       19.8918000000        3.3987500000 N         0.0000000000         0.0000000000         5.2693121602      -11.4162857172       19.1579192298
atom         0.3209000000       10.7408000000       11.6230000000 N         0.0000000000         0.0000000000        -7.2719593312        4.0293234331        6.3400364650
atom         0.9370500000       10.7305000000       10.6863000000 N         0.0000000000         0.0000000000       -13.3161750863        3.0400720444        0.4533934345
atom        18.3003000000        6.4505000000       10.3569000000 N         0.0000000000         0.0000000000         6.5757383262       -2.2756148778       -1.4835311747
atom        19.2127000000        5.9737100000        9.9107100000 N         0.0000000000         0.0000000000        -9.0966713138        2.7570729992        2.7123816572
atom         1.5820100000        4.7417100000       11.4553000000 N         0.0000000000         0.0000000000        -8.7547064473      -10.8261201725       -1.7083715178
atom         1.2849600000        3.6696100000       11.3253000000 N         0.0000000000         0.0000000000       -12.0999617841       22.1446983478       10.9976445286
atom         4.9892200000        5.9776100000        3.1529400000 N         0.0000000000         0.0000000000         4.6989325657        6.2492701480      -10.7567540441
atom         4.8014000000        6.3306600000        2.1095300000 N         0.0000000000         0.0000000000         5.4729598597        3.2503842423       -0.3673545298
atom         4.6279400000        7.9823700000       12.9195000000 N         0.0000000000         0.0000000000        24.6592666241       11.1655714392        2.6792667102
atom         5.5459600000        8.6233800000       12.9682000000 N         0.0000000000         0.0000000000        -7.8025133593       -5.0726979279       -0.0839634553
atom         9.3070700000        2.4830600000       12.6338000000 N         0.0000000000         0.0000000000        -0.8570452669        2.2721557956       -1.7788676131
atom         6.7646400000        7.7586900000        6.0716000000 N         0.0000000000         0.0000000000        -1.4530220697       -4.4989976144       -3.7369156843
atom         6.2919000000        6.9156200000        5.5061700000 N         0.0000000000         0.0000000000         7.2295509834        9.7035096347        5.7871598264
atom         1.9692900000       12.9554000000        9.4519800000 N         0.0000000000         0.0000000000        -4.7210476312       26.1189070711        3.2303215655
atom         1.7703700000       14.0588000000        9.4655600000 N         0.0000000000         0.0000000000         1.0706320626       -8.5199270080       -0.0462133382
atom         0.5906600000        9.4914600000       14.8532000000 N         0.0000000000         0.0000000000        -0.9942785881        2.9518193272       -0.0101005200
atom         1.4345700000        8.8647900000       15.2483000000 N         0.0000000000         0.0000000000       -17.2731114591       11.5639654667       -6.1151269402
atom         3.2767800000        8.6642400000        6.2163200000 N         0.0000000000         0.0000000000         5.1278587587        3.6813167030        2.2567282890
atom         4.0504600000        9.0278500000        6.9374900000 N         0.0000000000         0.0000000000         0.4028447132       -3.6311600111       -7.9043256788
atom         0.7746400000        4.1011200000        4.5070900000 N         0.0000000000         0.0000000000       -53.7013287612       -0.4384271388       45.5925252032
atom         1.6076700000        3.3975700000        4.7938600000 N         0.0000000000         0.0000000000        16.1781274579      -24.5829592707       26.2415661260
atom         1.1578600000        4.8919500000        2.8702600000 N         0.0000000000         0.0000000000        23.6876104336       21.3623692565       18.7312068494
atom         5.2107100000        1.1907700000       14.6630000000 N         0.0000000000         0.0000000000        -3.7674478498       13.1624304127       -0.2590852569
atom         4.8655500000        2.2575700000       14.6393000000 N         0.0000000000         0.0000000000         6.9551074015      -16.9566515588        0.1355037801
atom         4.7709700000       10.0400000000       16.0455000000 N         0.0000000000         0.0000000000        -7.0719321378       -7.6354858101        0.6548273214
atom         3.9616600000        9.2632000000       16.0111000000 N         0.0000000000         0.0000000000        21.1919287461       19.8362221890        0.0422008029
atom         1.7073300000        3.3764200000       15.1117000000 N         0.0000000000         0.0000000000        -1.3343063685       -2.7209140599      -10.3827350159
atom         2.1429700000        3.3784500000       14.0807000000 N         0.0000000000         0.0000000000        -4.8401784223       -4.0816939376       12.4555323739
atom        19.3803000000       12.7712000000        3.1649500000 N         0.0000000000         0.0000000000        13.9271643059        9.5050044374      -12.1408711963
atom         0.1597700000       13.2724000000        2.4887000000 N         0.0000000000         0.0000000000       -13.8578673591       -9.2206448199       12.3731831570
atom         4.2923900000        6.0383700000       10.1434000000 N         0.0000000000         0.0000000000        -1.4568962418       17.8568892320        4.8854232175
atom         3.5679100000        6.8480700000       10.4110000000 N         0.0000000000         0.0000000000        16.0995601708      -12.5591203556       -8.4663342944
atom        12.4044000000       19.0269000000       10.8642000000 N         0.0000000000         0.0000000000        16.8053282427       -3.4798136345      -16.6363866680
atom        14.6552000000       18.7750000000        1.3183100000 N         0.0000000000         0.0000000000       -20.8372805782       -2.1592974737       -3.1704794434
atom        13.5574000000       18.6326000000        1.1266900000 N         0.0000000000         0.0000000000        20.8129747606        2.1890686411        3.0493193242
atom         4.3637600000        3.6006300000        1.0492700000 N         0.0000000000         0.0000000000         5.8877960579        2.9113941865      -15.9292580237
atom         3.8335100000        4.1845200000        0.2568600000 N         0.0000000000         0.0000000000         9.6346277778       -4.0056863713        6.7001269222
atom         2.6006500000        1.3368100000       11.9573000000 N         0.0000000000         0.0000000000         6.3583004190      -23.6394138883       13.3241309753
atom         2.9842100000        0.3146900000       12.2153000000 N         0.0000000000         0.0000000000        -3.9576512498       10.5886426491       -4.1786174209
atom         5.9277300000        4.3602300000        7.7102300000 N         0.0000000000         0.0000000000         1.4563889097       14.5605914387       -2.4378919542
atom         5.2673900000        5.2635700000        7.6621500000 N         0.0000000000         0.0000000000        21.5712517004       -3.5050649345        0.3467614605
atom         6.8441900000        0.7153500000        1.5441500000 N         0.0000000000         0.0000000000       -18.5843572796      -13.5182316080        4.9701476708
atom         5.9527900000        0.0667500000        1.7658500000 N         0.0000000000         0.0000000000        18.2269649065       13.7788849821       -4.8198159584
atom        18.8311000000       19.2900000000       11.2930000000 N         0.0000000000         0.0000000000        10.4669521372       10.1718001832       14.3946707957
atom        19.4177000000       19.8433000000       12.0754000000 N         0.0000000000         0.0000000000       -10.8421703139       -9.8771325007      -14.2788607236
atom         3.5712900000        5.6394300000        5.4534300000 N         0.0000000000         0.0000000000       -14.2236076506       10.0570739568       -4.8255580348
atom         2.7110000000        6.0725300000        4.8806900000 N         0.0000000000         0.0000000000        11.3995668199        3.6827925781       17.1868419490
atom         4.2892900000        3.4113800000        3.9634700000 N         0.0000000000         0.0000000000         2.9790307738      -20.3225460860       -6.7806774164
atom         3.7841500000        2.5296700000        3.4942900000 N         0.0000000000         0.0000000000        23.5007046920        7.0234588658        7.3147135872
atom        18.8999000000        2.1084900000       15.7752000000 N         0.0000000000         0.0000000000        -4.9209825825      -17.1266308582       12.0334090426
atom        18.7150000000        1.2110800000       16.4256000000 N         0.0000000000         0.0000000000         3.5706952542       17.0713777851      -12.0351616442
atom         1.5420000000       10.7700000000        8.0288900000 N         0.0000000000         0.0000000000       -16.5805570812       -4.0522917389      -23.1762889025
atom         0.8989000000       10.5914000000        7.1292500000 N         0.0000000000         0.0000000000         0.1795955479        3.9414858057        4.4469268970
atom         3.1045100000       11.6990000000       13.5800000000 N         0.0000000000         0.0000000000        -0.8340539005       -6.3980106827       -8.3695722350
atom         3.0300200000       10.9582000000       12.7418000000 N         0.0000000000         0.0000000000         6.2712468502       13.3989855142       18.5185655362
atom        11.8993000000       11.8702000000       14.3070000000 N         0.0000000000         0.0000000000        18.2773291434      -26.8895214040       23.6989562232
atom        10.5845000000        4.8367200000        3.3504500000 H         0.0000000000         0.0000000000         3.9350749733       14.8260414068       20.3317472447
atom         7.8178400000        6.7418900000        0.4721100000 H         0.0000000000         0.0000000000        10.1804940098       -8.4741056991      -13.5956919887
atom         8.7177100000        6.6107100000       15.3502000000 H         0.0000000000         0.0000000000        -4.5916087752        0.5400088528       10.0861994290
atom        10.2879000000        3.5043700000        2.7458700000 H         0.0000000000         0.0000000000        -2.3278008980      -21.3840231110        0.1556817596
atom        12.0415000000        4.5097000000        8.2771600000 H         0.0000000000         0.0000000000         8.6375358029       -4.5064461714       -5.0959429603
atom        13.5278000000        3.7801500000        7.5718100000 H         0.0000000000         0.0000000000       -13.5734385599       -0.0672676186        0.7711447255
atom        17.6846000000        2.6744500000        6.1719600000 H         0.0000000000         0.0000000000         1.5676791144       -2.9633496012      -12.0991546649
atom        15.4028000000        2.2794700000       15.3266000000 H         0.0000000000         0.0000000000        -0.0866846000       -3.8259293996       -1.5192750241
atom        15.5681000000       16.2097000000       11.4819000000 H         0.0000000000         0.0000000000        -1.3909661350        2.7126122627       -2.4483614430
atom        12.6919000000       16.7704000000       10.4100000000 H         0.0000000000         0.0000000000        -9.3268617040        4.1392069443        0.8777536390
atom         3.4122900000       14.8725000000        3.8878100000 H         0.0000000000         0.0000000000       -24.7262113950       -3.2132106389        3.0461600291
atom         4.8340700000       14.6646000000        4.2519300000 H         0.0000000000         0.0000000000        15.6584118873       -8.4744516073        9.4591370074
atom        17.9672000000       10.2598000000       12.2895000000 H         0.0000000000         0.0000000000        -0.8595127455        3.6939308228       -7.3398957057
atom        18.5953000000       10.2280000000       13.7962000000 H         0.0000000000         0.0000000000        -2.9043837799       -8.5752723232       -2.9861564832
atom        18.5111000000        8.8577200000       12.9109000000 H         0.0000000000         0.0000000000         4.5134565780      -10.0909960230       -1.1783940034
atom         8.4689400000        1.9939400000       12.9464000000 H         0.0000000000         0.0000000000        -0.9416313570        0.4052199497       -4.5162930254
atom         9.9942900000       12.7069000000       11.1564000000 H         0.0000000000         0.0000000000        -7.2508128087        1.4179700367       20.5315207721
atom        11.1328000000       12.8441000000       10.2043000000 H         0.0000000000         0.0000000000        27.2257672546        8.8966902414       -3.6007892693
atom        12.6358000000        1.0417500000       11.1670000000 H         0.0000000000         0.0000000000        17.9580097351       -9.9149056783      -12.4695070660
atom         8.2451800000       15.8378000000       10.9436000000 O         0.0000000000         0.0000000000        10.3061970570        4.0321598805       -8.9446792418
atom        10.1889000000       16.2781000000        9.6685300000 O         0.0000000000         0.0000000000       -13.5258185283       -0.2200668097        7.2352930599
atom         5.2745400000        9.5876700000        3.1823000000 O         0.0000000000         0.0000000000        19.3883632861      -72.6871240606       13.2177757279
atom         8.0482800000        3.7212500000       16.1153000000 O         0.0000000000         0.0000000000         1.4992354079      -54.6270022189      -12.3471016772
atom        10.4148000000        4.4227800000        2.5084400000 O         0.0000000000         0.0000000000        -3.1552594818        7.3166045522      -21.0786322737
atom        11.0648000000        2.6527800000        6.0027400000 O         0.0000000000         0.0000000000       -44.8243552883      -31.1926657841      -38.5727560250
atom        14.6233000000        5.1537000000       10.3711000000 O         0.0000000000         0.0000000000        -3.6818009745       -9.1312390752        1.6930131929
atom        13.7835000000        3.0320900000       11.0015000000 O         0.0000000000         0.0000000000         7.2755106556       18.4377613759       -4.9019576304
atom        10.0902000000        6.2474300000        5.6706100000 O         0.0000000000         0.0000000000        -7.1039862995       -2.8214349887       14.9070069909
atom         9.3542300000        5.7821800000        7.8717100000 O         0.0000000000         0.0000000000         4.6275601696        3.2117347638      -13.6630287889
atom         5.1924500000       17.9642000000       10.4281000000 O         0.0000000000         0.0000000000        -4.2111789147       13.0538152315      -10.2545644900
atom         4.9024800000       19.7814000000        8.9392400000 O         0.0000000000         0.0000000000         0.1825011770      -10.2215879063        9.8139696597
atom        17.6390000000        2.0482900000        6.9591500000 O         0.0000000000         0.0000000000         2.2102612848       24.2075796702      -19.8377441852
atom        15.4349000000        2.4044900000        7.6668500000 O         0.0000000000         0.0000000000       -49.1392144269       32.0899286467      -23.2937823947
atom        16.9913000000        4.2727200000        4.1122700000 O         0.0000000000         0.0000000000        -2.8403676986       -5.0746580744      -15.1303022773
atom        16.6313000000        3.8055800000        1.8187600000 O         0.0000000000         0.0000000000         2.7583413294        2.5427943871       16.5632847308
atom        19.4601000000       13.9162000000        6.6758200000 O         0.0000000000         0.0000000000        15.7176313746       -0.1549899432       -4.3587664220
atom         1.6988200000       13.9529000000        5.8151100000 O         0.0000000000         0.0000000000       -12.5992918302       -1.5427045409        5.7291394876
atom        10.9603000000        5.5491300000       11.3908000000 O         0.0000000000         0.0000000000        -1.7644317100        2.9967643353        5.9082046429
atom        10.0211000000        6.0545200000       13.5017000000 O         0.0000000000         0.0000000000         8.0906087857       -4.4639225209      -20.5791638643
atom        13.1602000000        2.3571200000        0.9342800000 O         0.0000000000         0.0000000000       -12.3838371302       -4.2287510523        9.6379715573
atom        10.0060000000       19.8385000000        8.2963300000 O         0.0000000000         0.0000000000       -11.1935900051       -0.5365036495       15.1820501470
atom         8.5790200000       19.6230000000       10.1743000000 O         0.0000000000         0.0000000000         8.5829745463        0.8394270082      -12.9946879864
atom         1.6176800000       17.8565000000        9.6320600000 O         0.0000000000         0.0000000000         1.9320588335       -4.6172521046       13.5930400257
atom         1.7505000000       16.8818000000       11.7849000000 O         0.0000000000         0.0000000000        -1.5290296359        6.8918292578      -15.5230695310
atom         8.4350500000        7.6798100000        2.6089300000 O         0.0000000000         0.0000000000        -0.0110229419        5.0779326723        5.5321101654
atom         8.9251700000        9.4718800000        4.0722000000 O         0.0000000000         0.0000000000        -5.1478753144      -16.9980913635      -10.4622708460
atom        15.1737000000       15.3179000000       11.4477000000 O         0.0000000000         0.0000000000         7.1495078213      -10.7294042341        5.2321616174
atom        13.1301000000       14.4686000000       10.9645000000 O         0.0000000000         0.0000000000        -1.6196345291      -10.7056749302        0.1043028587
atom        13.6074000000       16.6991000000       10.7326000000 O         0.0000000000         0.0000000000        12.2704714761      -11.3080395048        1.5518134574
atom         9.8444200000       18.4548000000        0.1875500000 O         0.0000000000         0.0000000000        -4.3080332163       -9.2712396622        1.1172143695
atom         8.7957000000       16.3434000000        0.3859700000 O         0.0000000000         0.0000000000         8.8603929388       15.5228158650       -1.7271428039
atom         4.2911600000       15.1095000000        3.5987300000 O         0.0000000000         0.0000000000         8.4729296111       11.3821561062      -10.3173353017
atom        12.1967000000       15.6960000000       15.4861000000 O         0.0000000000         0.0000000000       -11.6093947463        7.1720840978      -15.9629956055
atom        10.9494000000       16.3459000000       13.5787000000 O         0.0000000000         0.0000000000         7.9580798162       -3.5723556136       13.9831322559
atom        16.6376000000        5.9275000000        7.2990700000 O         0.0000000000         0.0000000000        -0.7429877964       -1.4055404013       -0.1893040386
atom        15.5274000000       19.8747000000       12.6362000000 O         0.0000000000         0.0000000000        -7.7936811694       -7.5742600551        9.6424914247
atom        14.2357000000       18.4179000000       13.9832000000 O         0.0000000000         0.0000000000        10.3337313513       11.5733972308       -9.4416571120
atom         7.1745200000       14.9809000000        7.4300300000 O         0.0000000000         0.0000000000         2.2031355754       18.0217490898        0.3403506281
atom         7.4925800000       17.3239000000        7.4454900000 O         0.0000000000         0.0000000000        -1.7445996388       -6.7541347256        0.7572392151
atom         3.9117900000       16.8978000000        6.8326000000 O         0.0000000000         0.0000000000         7.4689886534       12.3051084192       -8.9282370711
atom         4.7579500000       18.4444000000        5.2479600000 O         0.0000000000         0.0000000000        -6.9250825680      -12.5538625506       16.7458781499
atom        18.1317000000       13.2933000000       10.1940000000 O         0.0000000000         0.0000000000         5.3807176677       12.6577733800       -1.7032290156
atom        18.6033000000       15.5997000000        9.9565400000 O         0.0000000000         0.0000000000        -1.8972604666      -15.5973244956        1.5489770100
atom        18.0210000000        9.7088900000       13.1369000000 O         0.0000000000         0.0000000000        -1.4431521551       11.7273033282       12.5769461592
atom         8.2994200000       18.0534000000        3.7467900000 O         0.0000000000         0.0000000000         0.0058343186       15.5762010337        7.7114472552
atom         8.1770200000        0.1408000000        4.9231900000 O         0.0000000000         0.0000000000         1.6339090083      -14.9569330773      -10.1367481502
atom        17.2499000000        0.4743200000        3.4320700000 O         0.0000000000         0.0000000000       -19.2233189440        5.1534790275        5.0154616477
atom        15.0738000000        1.1369600000        4.0970600000 O         0.0000000000         0.0000000000        14.0197524061       -4.9585943363       -5.5315105911
atom        11.2554000000        2.6330800000       14.0207000000 O         0.0000000000         0.0000000000        15.0813447339        5.3285777686        0.4202323664
atom        10.2063000000       12.6214000000       10.2276000000 O         0.0000000000         0.0000000000       -17.9969359401       -8.5741192958      -14.3042734475
atom         2.3588200000        4.8378900000        2.6084900000 O         0.0000000000         0.0000000000        -6.7032170356       14.0248257267      -36.7864859760
atom         0.1767600000        5.0939700000        2.2005100000 O         0.0000000000         0.0000000000       -19.8269287882       12.6789660236      -47.6936870353
atom        17.5108000000        3.0251500000       11.6523000000 O         0.0000000000         0.0000000000       -15.2442905661        3.3114255129       25.7863970293
atom        17.4811000000        2.5265200000        9.3475300000 O         0.0000000000         0.0000000000        30.1161763424        9.3539117268       38.5113919067