begin
comment generated by PY
lattice        19.9650000000         0.0000000000         0.0000000000
lattice         0.0000000000        19.9650000000         0.0000000000
lattice         0.0000000000         0.0000000000        16.4367121000
atom        11.4269000000        3.3662700000       13.3716000000 C         0.0000000000         0.0000000000        -9.9551988003        0.5439712118       -5.0643582412
atom         2.0908000000       14.3027000000        1.4080100000 C         0.0000000000         0.0000000000        -1.8905173064      -10.5996267986        1.8331683199
atom        17.0074000000        9.0346100000        3.8333200000 C         0.0000000000         0.0000000000      -110.6070203781      -74.8466593751      119.6167019109
atom         6.2137400000        7.5061300000        8.8971600000 C         0.0000000000         0.0000000000        25.0753473850        3.5942101798        9.5101050658
atom         8.5244800000        0.9272000000        4.1914200000 C         0.0000000000         0.0000000000         2.0110628628        4.2940906752       -3.8535291829
atom         9.1914400000        9.9757100000        7.3031600000 C         0.0000000000         0.0000000000        -1.2758202967       -2.1313418251       12.8307195813
atom        12.3594000000       10.6208000000        5.7080800000 C         0.0000000000         0.0000000000        -1.4595567985       -3.2531675129       -0.5069628222
atom         9.9351000000       18.0324000000       15.1387000000 O         0.0000000000         0.0000000000       -28.3117381476      -61.5471333137      108.3009020398
atom         2.7275700000        6.0281600000        8.3692300000 O         0.0000000000         0.0000000000      -132.2111012092      -27.2871002768      -39.7981238259
atom        11.3052000000        4.0849300000       12.4374000000 O         0.0000000000         0.0000000000        24.9338461411     -126.8752985903      165.7811906211
atom        11.5210000000        2.6401600000       14.3017000000 O         0.0000000000         0.0000000000       -13.3854248086      126.6317524258     -160.4646152064
atom         2.4740200000       14.4288000000        0.2930200000 O         0.0000000000         0.0000000000       -66.3066505478      -18.2490303404      195.2159002557
atom         1.7092700000       14.1490000000        2.5187300000 O         0.0000000000         0.0000000000        68.5052776932       30.1793751654     -197.0185113684
atom         2.2098800000        2.8477000000       15.4007000000 O         0.0000000000         0.0000000000       123.8683177800       22.4187718621       -4.8236144870
atom        17.8070000000        9.5502800000        3.0705500000 O         0.0000000000         0.0000000000      -117.5590028251      -75.7685053457      109.1419607019
atom        13.6768000000       11.9617000000       15.3712000000 O         0.0000000000         0.0000000000      -186.3426673343     -199.6076243973      193.7130076744
atom         5.7913900000        7.8233800000        7.6639400000 O         0.0000000000         0.0000000000       109.9908803784       24.3993849596       50.9671966293
atom         7.2409900000        7.9246100000        9.4069000000 O         0.0000000000         0.0000000000      -149.4530906135      -62.3426620130      -73.5191659191
atom         5.3824300000        6.6609300000        9.4867600000 O         0.0000000000         0.0000000000       -12.3512673682       75.7940953823     -107.6265908208
atom         2.5974800000        6.3405300000       14.1467000000 O         0.0000000000         0.0000000000      -114.8305820489       45.3410849298      -62.9068993698
atom         7.6570400000       15.5301000000       16.1473000000 O         0.0000000000         0.0000000000      -198.7446229742     -260.0608664948        3.6174380828
atom         9.5559500000        0.4544500000        4.5287000000 O         0.0000000000         0.0000000000      -180.0744367749       81.1506171353      -57.7447796293
atom         7.4987600000        1.4066200000        3.8466600000 O         0.0000000000         0.0000000000       178.1728198388      -85.1538493323       61.7312236708
atom         8.5551000000        6.4617800000       11.4282000000 O         0.0000000000         0.0000000000       -45.7875913685      -23.5463812840     -116.4134697472
atom         9.8426100000       10.2916000000        8.2380000000 O         0.0000000000         0.0000000000      -113.9083689415      -54.4393861888     -168.5191475294
atom         8.5255200000        9.6544000000        6.3776000000 O         0.0000000000         0.0000000000       113.7624150282       55.2342886425      156.7608957401
atom        13.0148000000        9.8012000000        6.2489400000 O         0.0000000000         0.0000000000      -114.0363897848      143.4929671691      -93.3831131243
atom        11.6880000000       11.4349000000        5.1675300000 O         0.0000000000         0.0000000000       116.3394773776     -140.1762468426       94.0647277649
atom         6.8610600000       18.2510000000        5.7271700000 O         0.0000000000         0.0000000000       -16.9005407656     -290.8725362312      149.9380900205
atom         4.5799200000       17.2292000000       15.5095000000 O         0.0000000000         0.0000000000      -147.5494212630      256.5984608852      157.6337475965
atom        19.2115000000       19.8282000000        2.5545500000 N         0.0000000000         0.0000000000       -91.8041016957      218.9773845813        2.9361955972
atom        18.7752000000        0.8929500000        2.5997700000 N         0.0000000000         0.0000000000        92.2655360086     -216.3866462551      -10.7822688922
atom         5.0324900000        3.7003900000       13.1745000000 N         0.0000000000         0.0000000000       103.5092102427      194.4475746262     -113.0969728318
atom         5.5093400000        4.5779400000       12.6577000000 N         0.0000000000         0.0000000000      -105.8606607708     -194.7136518545      114.6085691979
atom        18.8107000000        5.4926700000        5.5812700000 N         0.0000000000         0.0000000000       163.6085194483     -152.5911060609       82.4092123307
atom        19.5781000000        4.7750300000        5.9680000000 N         0.0000000000         0.0000000000      -163.3843274337      157.2023862056      -79.8771655756
atom        16.6575000000        5.8059000000        0.3290900000 N         0.0000000000         0.0000000000        27.5078631815      187.0999288154     -143.3989201309
atom        16.7904000000        6.6844000000       16.0848000000 N         0.0000000000         0.0000000000       -29.0866240602     -186.9572122015      145.6584934288
atom        18.6915000000       11.6019000000        5.0757900000 N         0.0000000000         0.0000000000      -203.0771457552      119.7084790844        0.7999318300
atom        17.7220000000       12.1605000000        5.0743500000 N         0.0000000000         0.0000000000       205.2431124396     -121.3853137589       -1.0874054195
atom        18.2902000000       12.2944000000        2.1997600000 N         0.0000000000         0.0000000000       -84.8805759176     -120.0420546570     -187.6934308975
atom        17.8581000000       11.7400000000        1.3302700000 N         0.0000000000         0.0000000000        92.7381023783      116.9330290053      184.5900422522
atom        16.2350000000        8.5253100000        4.6049700000 N         0.0000000000         0.0000000000       227.6909863824      152.2568611563     -231.8399550649
atom        14.9749000000        6.9530700000        2.3144600000 N         0.0000000000         0.0000000000        98.2990812483     -164.0423748009      136.6938045970
atom        15.4505000000        6.1746200000        2.9618400000 N         0.0000000000         0.0000000000      -100.2376951203      167.1145750977     -138.1942299191
atom        17.4372000000       10.3003000000       11.2367000000 N         0.0000000000         0.0000000000        87.0855581035        3.4653682002      221.1905042858
atom        17.8208000000       10.3047000000       12.2870000000 N         0.0000000000         0.0000000000       -74.8410724684        0.5868776108     -223.7155872577
atom        18.6424000000        8.3984100000       14.0947000000 N         0.0000000000         0.0000000000         7.1971568405     -229.4021673069      -58.0055838472
atom        18.6565000000        7.3137000000       13.8201000000 N         0.0000000000         0.0000000000        -0.3139495733      227.1723342824       56.9292555942
atom         9.9930700000        4.1769000000        4.2089200000 N         0.0000000000         0.0000000000        25.0079277597      -61.3294318205      233.4551410726
atom        10.1089000000        3.8937400000        5.2887300000 N         0.0000000000         0.0000000000       -25.5719411468       60.9209554950     -233.5507259587
atom        13.0344000000       11.2751000000       16.0376000000 N         0.0000000000         0.0000000000       186.8834351810      199.1666547990     -193.4169351841
atom        15.3337000000        9.6518700000        1.1403400000 N         0.0000000000         0.0000000000       172.2125866831      -75.0544702856     -133.8803403025
atom        16.1712000000        9.2833600000        0.4975700000 N         0.0000000000         0.0000000000      -178.5164910132       76.7538066823      135.8005383535
atom        15.4091000000        9.2399700000       13.1385000000 N         0.0000000000         0.0000000000       119.9977132122     -118.3702952772      168.3199968079
atom        15.9956000000        8.6807700000       13.9097000000 N         0.0000000000         0.0000000000      -127.1309802298      113.8321336915     -161.1068747514
atom         1.3270600000       15.3392000000        7.0638200000 N         0.0000000000         0.0000000000       -11.6030164983     -190.1641835396     -162.2960459660
atom         1.2738300000       14.4843000000        6.3347500000 N         0.0000000000         0.0000000000        11.8261182713      190.0975458909      162.3529967794
atom         4.9164000000        1.9459800000        9.9379100000 N         0.0000000000         0.0000000000       -61.2369298292      222.5969406284      -98.2765998244
atom         4.6398300000        2.9435300000        9.4976000000 N         0.0000000000         0.0000000000        60.7088925909     -222.2359250275       98.1664338935
atom        16.9688000000        3.8733100000        4.0093000000 N         0.0000000000         0.0000000000       156.7637929908     -164.8383691968       60.3851072244
atom        17.7098000000        3.0917000000        4.3106700000 N         0.0000000000         0.0000000000      -156.3662978623      164.0778601098      -64.1516457276
atom        15.4145000000       11.7616000000       12.1207000000 N         0.0000000000         0.0000000000       -64.9034948862      235.9834165303       43.1473035394
atom        15.1276000000       12.8281000000       12.3131000000 N         0.0000000000         0.0000000000        60.4972373514     -226.0647245147      -40.4939488404
atom        18.7981000000        8.2996500000        0.5987500000 N         0.0000000000         0.0000000000        34.3000456954      230.9543195986      -47.8881766545
atom        18.9482000000        9.3840800000        0.3714300000 N         0.0000000000         0.0000000000       -26.1332774282     -229.4695125516       48.9969568447
atom        14.3498000000       13.3459000000        6.7396200000 N         0.0000000000         0.0000000000       176.3407393215     -145.4318664900      -69.1766024707
atom        15.1793000000       12.6644000000        6.4153200000 N         0.0000000000         0.0000000000      -179.2420676755      146.2836224469       69.5782342354
atom        17.5422000000        2.0903000000       10.2647000000 N         0.0000000000         0.0000000000        -9.8227128720     -199.0577892373      144.6453444306
atom        17.4983000000        1.1842100000       10.9233000000 N         0.0000000000         0.0000000000         8.5930925777      191.7109161450     -139.3065879140
atom         0.2355900000        3.7470700000        3.3381600000 N         0.0000000000         0.0000000000        94.2908345002      -69.2636735394     -203.7700101345
atom         0.6844600000        3.4092200000        2.3709700000 N         0.0000000000         0.0000000000       -91.8087708844       69.6411505557      200.5265393684
atom         2.9182700000       15.1096000000       13.0173000000 N         0.0000000000         0.0000000000       209.8727656154     -126.4365320482       39.3932359987
atom         3.8689600000       14.5371000000       13.1952000000 N         0.0000000000         0.0000000000      -209.7923514743      126.5285101676      -39.0923749944
atom        13.3503000000       19.2838000000       14.3796000000 N         0.0000000000         0.0000000000        58.2877006832      -88.3074722863      223.8111041645
atom        13.6153000000       18.8829000000       15.3955000000 N         0.0000000000         0.0000000000       -59.3682519226       88.2193267159     -224.0521308836
atom         4.2220100000        0.7401500000        5.7842000000 N         0.0000000000         0.0000000000       -80.6071886610      -92.9507214718      207.2751418143
atom         3.8454700000        0.3055300000        6.7472500000 N         0.0000000000         0.0000000000        81.0536129295       93.1913770207     -206.8045086198
atom        16.9381000000        0.4955400000        4.9452900000 N         0.0000000000         0.0000000000        75.9157968159     -215.9589958727      -63.4004033880
atom        17.3051000000       19.4487000000        4.6406700000 N         0.0000000000         0.0000000000       -84.7497453097      215.7402984838       66.1936087526
atom        14.1972000000        3.7286300000        3.9988800000 N         0.0000000000         0.0000000000       -82.6844297857       10.9742227115     -224.2397545273
atom        13.7952000000        3.7991000000        2.9567400000 N         0.0000000000         0.0000000000        81.7367825250      -15.0762412774      218.2834158463
atom        16.0611000000        4.1539100000        9.4592300000 N         0.0000000000         0.0000000000        34.7891049523      225.7648162148      -70.7349491520
atom        16.2623000000        5.2059000000        9.1349800000 N         0.0000000000         0.0000000000       -44.2559293308     -224.4012398738       68.1858364083
atom        12.4196000000        0.5187300000        1.8572500000 N         0.0000000000         0.0000000000      -117.3019469609      207.3381924946      -58.0579456850
atom        11.8816000000        1.4683000000        1.5919000000 N         0.0000000000         0.0000000000       117.2109086673     -207.1823915245       58.1285901364
atom        14.5197000000        5.8995000000       11.4241000000 N         0.0000000000         0.0000000000       -68.0053058537      202.0705103479       99.6695688308
atom        14.2047000000        6.8638500000       11.8942000000 N         0.0000000000         0.0000000000        63.9794584818     -202.4768360944      -98.0536735586
atom        13.2388000000        5.9071300000       14.8042000000 N         0.0000000000         0.0000000000       186.2349822311     -148.2507495389      -15.5466384363
atom        14.1169000000        5.2133100000       14.7320000000 N         0.0000000000         0.0000000000      -195.0283564643      154.8539199819       15.7180766908
atom        16.9794000000       12.0745000000        9.0888900000 N         0.0000000000         0.0000000000        36.3405228554      230.6709227457       58.8427320175
atom        17.1423000000       13.1481000000        9.3655500000 N         0.0000000000         0.0000000000       -34.9894475571     -225.9121312502      -58.5625858111
atom        17.1189000000       14.4172000000        3.5476000000 N         0.0000000000         0.0000000000       193.4574332126      138.3477059020      -52.6055812973
atom        18.0239000000       15.0274000000        3.2933800000 N         0.0000000000         0.0000000000      -193.2434067427     -132.0930575198       54.5441327602
atom        18.6557000000        2.6560600000        0.3174400000 N         0.0000000000         0.0000000000      -212.2712572568       90.9187188462      -38.3406106867
atom        17.6421000000        3.0935000000        0.1352600000 N         0.0000000000         0.0000000000       222.2102610981      -90.4631970416       41.8381558375
atom        13.3929000000        6.9461600000        8.7413800000 N         0.0000000000         0.0000000000       214.6321723677       90.1280486341      -22.4028591347
atom        14.4198000000        7.3794800000        8.6380600000 N         0.0000000000         0.0000000000      -217.0873511983      -90.5393263095       22.1145450138
atom        16.9361000000        7.8290400000       10.2370000000 N         0.0000000000         0.0000000000        22.7749009559      -71.1959410029      225.9209744381
atom        17.0434000000        7.5017400000       11.3021000000 N         0.0000000000         0.0000000000       -21.4062906356       67.0353786602     -226.1566275510
atom        14.0922000000        1.0982100000        4.9427100000 N         0.0000000000         0.0000000000      -176.7619936133     -149.8809542463       73.4195664252
atom        13.2733000000        0.4133900000        5.2874000000 N         0.0000000000         0.0000000000       174.9390866288      147.0577222914      -73.4167416794
atom        12.5870000000       15.4702000000       15.7219000000 N         0.0000000000         0.0000000000        -9.6161397990      -12.8937923217     -248.3566901525
atom        12.5451000000       15.4104000000       14.6001000000 N         0.0000000000         0.0000000000         9.2380471303       13.4370460637      248.3002674964
atom        10.7051000000        6.8351800000        7.2481800000 N         0.0000000000         0.0000000000      -213.1512325027      -95.8935926000       62.8929655398
atom         9.7191800000        6.3875200000        7.5414600000 N         0.0000000000         0.0000000000       212.2319195347       96.3060937436      -62.8269902394
atom        13.3554000000        4.2170300000        6.4588000000 N         0.0000000000         0.0000000000      -159.6445266512      -27.2461816881      181.5251581957
atom        12.6132000000        4.0909400000        7.2889100000 N         0.0000000000         0.0000000000       155.1076034323       26.6159616793     -174.0373953004
atom         1.3246600000       17.7239000000        2.0556100000 N         0.0000000000         0.0000000000       221.0780128863       23.4008967962      -94.1563708337
atom         2.3610300000       17.8462000000        1.6455000000 N         0.0000000000         0.0000000000      -227.6338906100      -29.0362035178       83.0995375470
atom        16.3552000000        2.3106300000        7.3486000000 N         0.0000000000         0.0000000000      -101.9778662570       97.0577848593     -189.7769253416
atom        15.8823000000        2.7722900000        6.4446000000 N         0.0000000000         0.0000000000        98.6111960964      -97.2110530078      193.7782726938
atom        16.6857000000        0.5766800000       16.0253000000 N         0.0000000000         0.0000000000        65.9005667504     -215.0506270838      -97.7569716209
atom        16.9929000000       19.5636000000       15.5712000000 N         0.0000000000         0.0000000000       -65.7336015795      208.7957974434       96.4301367866
atom         1.2457600000        8.1651700000       10.9745000000 N         0.0000000000         0.0000000000      -189.6922608192     -145.8546499497      -10.9404660555
atom         0.3567100000        7.4841000000       10.9216000000 N         0.0000000000         0.0000000000       190.8741800674      146.5605955792       11.3103678257
atom        14.5544000000        2.6961600000       12.0413000000 N         0.0000000000         0.0000000000        72.5082292564      108.6116321150      197.2784162546
atom        14.8970000000        3.2124700000       12.9754000000 N         0.0000000000         0.0000000000       -79.5501324291     -115.2739165288     -204.2418419114
atom         6.9521200000       14.6053000000       16.1592000000 N         0.0000000000         0.0000000000       197.4272211493      260.2786365829       -3.3029868688
atom        19.8001000000        8.1924200000        5.4647600000 N         0.0000000000         0.0000000000      -109.5095310697      180.4711602467       98.2331437656
atom        19.2625000000        9.0533500000        5.9341000000 N         0.0000000000         0.0000000000       111.2116957691     -180.5392137028      -99.5267187350
atom        18.8895000000        9.9537800000        8.7862200000 N         0.0000000000         0.0000000000       229.0268100685       79.9693515786      -19.6272015797
atom        19.9395000000       10.3314000000        8.6776100000 N         0.0000000000         0.0000000000      -223.5913103436      -79.9189682217       22.4366180158
atom         3.0880000000       13.2476000000        9.7172700000 N         0.0000000000         0.0000000000       151.6507210377      193.1341806993      -47.6399258936
atom         3.7699500000       14.1158000000        9.5027600000 N         0.0000000000         0.0000000000      -151.6800461267     -193.1184337723       47.6484508274
atom        17.2930000000       10.8132000000       14.9615000000 N         0.0000000000         0.0000000000        -1.0860666053      238.1073745573      -41.3953525683
atom        17.2837000000       11.9151000000       14.7619000000 N         0.0000000000         0.0000000000         1.3337489490     -232.1856666360       42.6443975073
atom        15.5686000000        5.6742000000        5.6706900000 N         0.0000000000         0.0000000000        98.6477565122      138.9738826975      157.7106289758
atom        16.0357000000        6.3540900000        6.4248300000 N         0.0000000000         0.0000000000       -95.2959551961     -140.5003071206     -154.3116607738
atom        15.9017000000       14.3965000000        0.1611700000 N         0.0000000000         0.0000000000        63.8847636354     -123.9104973502      191.5687789677
atom        16.2051000000       13.8124000000        1.0689900000 N         0.0000000000         0.0000000000       -68.8655436809      130.0406150081     -198.9049372070
atom        16.5980000000        5.3430500000       13.4367000000 N         0.0000000000         0.0000000000        34.1355630750     -164.8086641213      171.5399181011
atom        16.7381000000        4.5709400000       14.2351000000 N         0.0000000000         0.0000000000       -23.6190950669      168.1366730611     -174.7052524135
atom        15.6874000000        0.7169900000        2.4035400000 N         0.0000000000         0.0000000000        48.0935696243      225.4243313355      -42.8910847990
atom        15.9273000000        1.7900500000        2.1990500000 N         0.0000000000         0.0000000000       -50.1792091182     -224.8254567836       42.9537928027
atom         1.3911800000        2.9355900000       11.5088000000 N         0.0000000000         0.0000000000       -21.4788010067     -169.4298537039     -173.0908213926
atom         1.2920900000        2.1539300000       10.7093000000 N         0.0000000000         0.0000000000        21.7213194972      169.3579483180      173.5257649775
atom         0.0389800000        1.9076700000        5.5779500000 N         0.0000000000         0.0000000000       -51.5256241783     -222.0515709332      -72.0853590491
atom        19.7726000000        0.8681700000        5.2328800000 N         0.0000000000         0.0000000000        51.4694704256      221.7098279500       75.9671533904
atom         4.8136300000       19.0907000000        2.0449800000 N         0.0000000000         0.0000000000       -61.9591679333       15.9276992262      229.5738291841
atom         4.5062100000       19.1387000000        3.1204300000 N         0.0000000000         0.0000000000        70.6139807618       -2.6799762081     -230.1527947561
atom         4.5415300000       16.4974000000        2.6429200000 N         0.0000000000         0.0000000000       117.5422456446     -216.9876613075      -22.0809921824
atom         5.0923100000       15.5262000000        2.5409300000 N         0.0000000000         0.0000000000      -115.6865747451      204.8301182405       20.3804327799
atom         6.4091500000       11.3319000000        9.2930200000 N         0.0000000000         0.0000000000       -54.1860889658       67.9629216366     -231.7705299988
atom         6.1632300000       11.6405000000        8.2404500000 N         0.0000000000         0.0000000000        54.6584010237      -68.7841369273      231.6018070751
atom        18.2455000000        0.1794400000        7.4597200000 N         0.0000000000         0.0000000000        33.4843275441     -191.8894846734      147.2006574887
atom        18.3994000000       19.2594000000        8.1312900000 N         0.0000000000         0.0000000000       -33.1142274738      189.7622061590     -143.6119282060
atom        19.1037000000       16.0407000000        0.8421900000 N         0.0000000000         0.0000000000       -11.1405363310     -111.2364754215     -213.8499346776
atom        19.0424000000       15.5207000000       16.2872000000 N         0.0000000000         0.0000000000        12.7294299245      110.0382432218      211.0797942653
atom        18.3553000000        6.1924600000        2.7300400000 N         0.0000000000         0.0000000000       178.0867667297      139.4013959535       58.2464337205
atom        19.2059000000        6.8631600000        3.0060500000 N         0.0000000000         0.0000000000      -177.7696290555     -138.8817389913      -58.3690412351
atom        12.0448000000       10.3195000000       12.4493000000 N         0.0000000000         0.0000000000       -39.8604710410      234.6279373032      -64.7293062453
atom        11.8626000000       11.3881000000       12.1535000000 N         0.0000000000         0.0000000000        40.0278576541     -234.7440835765       64.8989341047
atom        15.0371000000       10.2285000000        9.6796100000 N         0.0000000000         0.0000000000       -42.8758129722     -139.2933481359      185.0847199270
atom        14.8617000000        9.5639000000       10.5622000000 N         0.0000000000         0.0000000000        33.0524840277      137.6069016011     -193.7230389026
atom        17.6735000000       14.6537000000        6.2815100000 N         0.0000000000         0.0000000000         6.6323690371      172.4155720186      174.1391012537
atom        17.7026000000       15.4454000000        7.0750800000 N         0.0000000000         0.0000000000        -6.2532862791     -169.0301444851     -169.5853736554
atom         0.0286000000        5.5780700000        0.2844300000 N         0.0000000000         0.0000000000      -131.9495585649      -48.4216258864     -186.7338509897
atom        19.3532000000        5.3486000000       15.8334000000 N         0.0000000000         0.0000000000       137.1984356490       47.9161102489      185.0857568576
atom        18.9002000000        5.0403300000       11.7195000000 N         0.0000000000         0.0000000000       -95.0379681894      -78.8428092215     -193.1021218421
atom        18.4306000000        4.6595400000       10.7792000000 N         0.0000000000         0.0000000000       100.9541576414       79.6337892087      199.5314393240
atom        19.3731000000        2.7701800000        8.2240200000 N         0.0000000000         0.0000000000      -155.2023239331      172.9487902225       20.3344640431
atom        18.6203000000        3.5925800000        8.3155100000 N         0.0000000000         0.0000000000       161.8338687642     -174.8198355479      -25.8874471014
atom        15.1318000000        2.7874700000       15.6744000000 N         0.0000000000         0.0000000000       -45.1722901245      132.9563981303      196.4980992030
atom        14.9463000000        3.4222400000        0.1413700000 N         0.0000000000         0.0000000000        34.9408928873     -137.2022999490     -194.4848481898
atom         6.8021200000       17.2246000000        6.2559900000 N         0.0000000000         0.0000000000        16.6407963778      291.0510629472     -149.7115272221
atom         2.5300700000       17.6204000000        4.4081200000 N         0.0000000000         0.0000000000       186.6591385777      -42.7761995112      152.7377660341
atom         3.4014900000       17.4385000000        5.0868100000 N         0.0000000000         0.0000000000      -184.3211997022       38.1098042695     -140.2877770088
atom         7.7841400000       18.2937000000        1.9998300000 N         0.0000000000         0.0000000000       146.4304341073     -158.1813616289      114.6746486391
atom         8.4541200000       17.5646000000        2.5295600000 N         0.0000000000         0.0000000000      -145.3812468306      158.2973754748     -115.2634121157
atom         1.8006300000        0.0899900000        3.4077700000 N         0.0000000000         0.0000000000       111.0800207619      213.5877381487        9.2753906209
atom         2.3187100000        1.0812100000        3.4492400000 N         0.0000000000         0.0000000000      -108.3415019290     -206.5848061508       -8.9438173043
atom        14.9145000000       11.4619000000        3.4868600000 N         0.0000000000         0.0000000000       172.1154082877      139.4421003457      -71.8516688868
atom        15.7447000000       12.1260000000        3.1348700000 N         0.0000000000         0.0000000000      -180.3687411722     -146.5287177109       77.7106051823