begin
comment generated by PY
lattice        19.9650000000         0.0000000000         0.0000000000
lattice         0.0000000000        19.9650000000         0.0000000000
lattice         0.0000000000         0.0000000000        16.4367122000
atom         9.1197900000       15.7848000000        7.9596800000 H         0.0000000000         0.0000000000        32.7467407215       67.7892776008        7.2624732073
atom         9.3571800000       17.6147000000        8.2289500000 H         0.0000000000         0.0000000000        18.4331518170      -63.0561053622      -14.0139054323
atom        16.8467000000       17.2087000000        7.0010400000 H         0.0000000000         0.0000000000        84.9894446605      -21.9724485048        2.4989773044
atom        19.7349000000       16.3948000000        1.6873900000 H         0.0000000000         0.0000000000       -72.7462160764       41.9599060638       28.9107656259
atom        13.0315000000        6.8512400000        0.6155800000 O         0.0000000000         0.0000000000      -177.7623943604      -67.6217524722      -75.7418777749
atom        10.9877000000        6.0458800000       16.1756000000 O         0.0000000000         0.0000000000       175.1861076552       71.7796783739       75.9233205137
atom        14.7016000000        1.4007300000       10.1900000000 O         0.0000000000         0.0000000000       273.4731124155      180.3409369462      130.7553143775
atom        11.3568000000        2.3538000000        9.2350700000 O         0.0000000000         0.0000000000      -133.9492175024      292.5909771206     -170.0135388608
atom         7.8912400000       19.7812000000       11.7204000000 O         0.0000000000         0.0000000000       -47.8064056602     -112.2188293540      141.1109652251
atom         0.7375600000       17.8980000000       14.9658000000 O         0.0000000000         0.0000000000      -126.2274962511     -159.1950180025      -45.9546963008
atom        19.2458000000       16.0910000000       14.5059000000 O         0.0000000000         0.0000000000       126.4299794268      154.4712511663       33.6917857466
atom         8.7533400000        1.5054800000       14.9420000000 O         0.0000000000         0.0000000000      -195.4497081526       42.7487820685      -49.9564247133
atom         6.5038800000        1.9794900000       14.3673000000 O         0.0000000000         0.0000000000       199.6069112837      -40.7593901236       51.3476316232
atom        17.7606000000       10.2859000000       13.1702000000 O         0.0000000000         0.0000000000      -158.0993372157     -101.2991072592      -90.8025666089
atom        15.9544000000        9.1342700000       12.1625000000 O         0.0000000000         0.0000000000       156.8467281372       99.5026137605       85.5107367538
atom         8.6821600000        3.5266900000       11.6215000000 O         0.0000000000         0.0000000000        -1.7994939460      130.2269489411      158.2727240343
atom         8.6359100000        4.9986000000       13.4770000000 O         0.0000000000         0.0000000000         5.3056107993     -127.8264216020     -165.9691267343
atom        11.6408000000       17.6887000000        7.6331300000 O         0.0000000000         0.0000000000       -76.7105449494      -45.5176143711       83.3612741784
atom        10.0659000000       18.9605000000        8.6772100000 O         0.0000000000         0.0000000000       157.5102783164      -38.8781661396       14.4792597149
atom        11.4415000000       15.4581000000        7.2799500000 O         0.0000000000         0.0000000000       -59.2982278278      142.8879208176       41.1609951210
atom        12.1987000000       18.8716000000        9.4646300000 O         0.0000000000         0.0000000000      -127.8626495418      -29.1914256496     -103.5056825810
atom        16.3445000000        8.2425600000       15.8837000000 O         0.0000000000         0.0000000000      -144.3116834617      151.9554071614      -19.8807074641
atom        14.7137000000        9.9440700000       15.6708000000 O         0.0000000000         0.0000000000       138.7344785231     -143.6052978279       17.0086549430
atom        18.8579000000       15.8572000000        8.8523800000 O         0.0000000000         0.0000000000       -71.6240944539       83.3405772255     -144.5041963698
atom         6.5009800000        0.8043800000        1.5030300000 O         0.0000000000         0.0000000000        42.3234162013      206.0458857266        7.8609815548
atom         6.9874300000        3.1210400000        1.5662300000 O         0.0000000000         0.0000000000       -42.4543753592     -198.5244272586       -3.6134106690
atom         1.6983700000       16.2303000000        6.3692200000 O         0.0000000000         0.0000000000      -112.9254414439     -163.3549422695      -55.9186354790
atom         0.3913600000       14.3613000000        5.7293900000 O         0.0000000000         0.0000000000       116.4629750491      163.4857474130       57.3297642877
atom         1.8226100000       13.4664000000        9.0733000000 O         0.0000000000         0.0000000000      -171.7038970491     -113.6754319621      -18.6542951831
atom        19.8239000000       12.1661000000        8.8297300000 O         0.0000000000         0.0000000000       171.4906438515      112.4892664234       24.6315074277
atom        12.2465000000        8.6277900000       11.4137000000 O         0.0000000000         0.0000000000        43.8425071504      -50.4487317325      346.1334068733
atom        17.6021000000       18.3171000000        0.6464600000 O         0.0000000000         0.0000000000        99.5445545658     -112.3835361530      108.6401324875
atom         6.5211000000       10.5599000000        7.1885100000 O         0.0000000000         0.0000000000        -1.6811569126     -208.5307384039       20.0895767635
atom         6.5094900000        8.2045600000        7.4304900000 O         0.0000000000         0.0000000000         0.8521783221      202.5157917026      -21.6673410766
atom        13.8181000000       14.5772000000       11.5693000000 O         0.0000000000         0.0000000000      -301.8044452839       64.4679021854      -36.2371548279
atom        12.0475000000       15.8818000000       11.2708000000 O         0.0000000000         0.0000000000       154.9367681693     -274.2850577493       42.1571740156
atom         6.4673700000        5.6132900000        4.5831100000 O         0.0000000000         0.0000000000      -183.8778180703      -10.3090259574       99.0936623697
atom         4.3921000000        5.5107500000        5.7158000000 O         0.0000000000         0.0000000000       177.1114642252        7.8496105967      -97.8971978005
atom        13.6478000000        0.7193700000        6.7229700000 O         0.0000000000         0.0000000000       128.4491621082     -149.8205886059       57.4791402574
atom        15.1624000000       18.9655000000        7.3198200000 O         0.0000000000         0.0000000000      -136.7001009415      151.2865592761      -47.8957047940
atom         6.7698300000       15.8771000000        5.3874600000 O         0.0000000000         0.0000000000        71.3852532690     -155.5866295432      117.1450887876
atom         7.6309400000       14.1453000000        6.7516300000 O         0.0000000000         0.0000000000       -78.1805963927      145.1481887972     -119.5314620319
atom         4.0277200000       13.1843000000        5.9462900000 O         0.0000000000         0.0000000000       120.3030488396      -52.6882738447     -157.4359784824
atom         5.4277900000       12.5693000000        4.1377500000 O         0.0000000000         0.0000000000      -124.5469474758       54.5286519620      159.2811611983
atom         9.1099900000       10.7947000000       12.0010000000 N         0.0000000000         0.0000000000        28.2922107646       -2.5643748444     -240.8534557398
atom         9.2324400000       10.7715000000       10.8881000000 N         0.0000000000         0.0000000000       -25.9338352161        3.7544976698      232.7068926702
atom         7.4964500000       15.5850000000       14.4624000000 N         0.0000000000         0.0000000000       201.0921902516      -13.6639522904     -124.9054459090
atom         8.4238400000       15.5125000000       13.8424000000 N         0.0000000000         0.0000000000      -194.4391264073       13.3577566823      132.2597661996
atom        12.7515000000       13.1980000000        0.2294400000 N         0.0000000000         0.0000000000        31.6996588185       47.2123744131     -232.2841015826
atom        12.8962000000       13.4188000000       15.5764000000 N         0.0000000000         0.0000000000       -36.3227957065      -48.1268630589      240.1455116369
atom        15.5998000000        1.9932500000       10.6183000000 N         0.0000000000         0.0000000000      -274.2458874667     -181.4668370957     -130.5984802961
atom        10.9337000000        3.2857000000        8.6957900000 N         0.0000000000         0.0000000000       132.6626465928     -295.2258460022      170.2389314771
atom        11.9865000000        1.8900900000       12.8106000000 N         0.0000000000         0.0000000000       -55.9733582138     -214.4186554621      -95.3068987859
atom        11.7262000000        0.8913900000       12.3695000000 N         0.0000000000         0.0000000000        56.1369547408      216.3353515344       95.0505667723
atom         7.2594800000       18.2744000000       13.5291000000 N         0.0000000000         0.0000000000        94.7467336238      229.0601019248     -264.5090309974
atom         4.2183600000       19.7594000000       12.1507000000 N         0.0000000000         0.0000000000        33.0684193119     -203.5454803514     -132.8001173442
atom         4.3674000000       18.8273000000       11.5426000000 N         0.0000000000         0.0000000000       -32.6702902971      203.8772487610      132.7083232648
atom         0.1035000000       13.2179000000       12.3222000000 N         0.0000000000         0.0000000000       151.9201912637     -188.1472440307       27.6068275894
atom         0.8040000000       12.3506000000       12.4526000000 N         0.0000000000         0.0000000000      -151.8565488350      188.0446221135      -28.2318019164
atom        12.8153000000       12.2550000000       10.7182000000 N         0.0000000000         0.0000000000        37.8330618168     -104.4153372819     -217.6912642357
atom        12.9948000000       11.7860000000        9.7149600000 N         0.0000000000         0.0000000000       -37.4826196368       99.7579798028      214.4041578791
atom         5.5277700000       16.6035000000        8.7417300000 N         0.0000000000         0.0000000000      -164.2457882212     -182.2333709545      -32.4297431116
atom         4.7801600000       15.7768000000        8.5971000000 N         0.0000000000         0.0000000000       164.7351166310      182.0081623422       31.8092454046
atom         5.9517800000        1.1218300000        8.7777100000 N         0.0000000000         0.0000000000       218.8620742553      -30.7074537767     -111.6352821068
atom         6.9450700000        0.9848200000        8.2703400000 N         0.0000000000         0.0000000000      -218.7248965190       30.5609175086      111.7006272914
atom         6.7156700000       13.8504000000       12.1563000000 N         0.0000000000         0.0000000000       184.6806862375     -146.5731974172       41.3714627805
atom         7.5814200000       13.1728000000       12.3660000000 N         0.0000000000         0.0000000000      -182.9658246024      145.0791514043      -50.0049847449
atom         3.5421000000        6.3561000000        2.2308100000 N         0.0000000000         0.0000000000        85.6388503178     -223.9248468159      -63.8451534614
atom         3.9287100000        5.3413200000        1.9404500000 N         0.0000000000         0.0000000000       -85.3324169842      223.9995527035       64.4234336396
atom         9.6562400000       16.6477000000        7.9694600000 N         0.0000000000         0.0000000000       197.4386528777      -27.3272826219      -54.9420642437
atom        10.4602000000       13.8653000000       10.4643000000 N         0.0000000000         0.0000000000      -217.1397369775      -32.5774045560     -115.0944613822
atom         9.4722900000       13.7281000000        9.9526500000 N         0.0000000000         0.0000000000       211.4265683196       31.2792275072      108.0358952269
atom        17.8469000000       16.9798000000        6.9881800000 N         0.0000000000         0.0000000000        65.8361330529     -143.7716378498      268.1955440298
atom        17.7767000000       11.7834000000        0.1539500000 N         0.0000000000         0.0000000000       139.8770885068      172.1561715388     -115.6871806664
atom        18.4069000000       12.5591000000       16.0749000000 N         0.0000000000         0.0000000000      -140.2177449585     -172.7651303747      115.3558833879
atom        14.3839000000       17.8322000000       11.1223000000 N         0.0000000000         0.0000000000      -132.7344253959      116.2200240137      146.6210655351
atom        13.7405000000       18.3970000000       11.8392000000 N         0.0000000000         0.0000000000       132.3749032615     -112.7235270270     -147.4329802302
atom        10.6917000000       16.1024000000        0.5456500000 N         0.0000000000         0.0000000000      -171.0696676881     -178.0151546573       25.0005852575
atom         9.9165300000       15.2967000000        0.6594100000 N         0.0000000000         0.0000000000       171.0582957604      178.1750180550      -24.8978903575
atom         5.0116300000        2.1010800000        4.6229200000 N         0.0000000000         0.0000000000       229.6526455102      -21.8691476727       81.2306161475
atom         6.0654600000        2.0001400000        4.9972000000 N         0.0000000000         0.0000000000      -228.9621076820       22.1501332488      -81.6740630591
atom         7.2192400000        6.6552900000        0.1872500000 N         0.0000000000         0.0000000000        84.0080823314       66.5795817742      226.3947368726
atom         7.5973100000        6.9543900000        1.2035600000 N         0.0000000000         0.0000000000       -83.9170994617      -66.7945190824     -226.3335946076
atom        11.9084000000       10.8212000000       13.2160000000 N         0.0000000000         0.0000000000      -124.9316467655      109.7634677687      172.5606170078
atom        11.3251000000       11.3367000000       14.0216000000 N         0.0000000000         0.0000000000       128.1832197842     -110.7168513275     -171.2110217468
atom         6.7961400000       10.2649000000       15.7876000000 N         0.0000000000         0.0000000000      -141.7221561691      -34.9348765982      202.6794063084
atom         6.1567000000       10.1087000000        0.2602600000 N         0.0000000000         0.0000000000       137.2683320471       33.4392154555     -195.8630673858
atom         4.0291400000       13.6775000000       12.7689000000 N         0.0000000000         0.0000000000       -21.7989491271     -188.0593512207     -153.1803750962
atom         3.9245200000       12.8011000000       12.0813000000 N         0.0000000000         0.0000000000        20.0747432646      183.0380653549      140.6599085595
atom        19.6671000000        4.9778300000       10.2788000000 N         0.0000000000         0.0000000000      -176.7120150960       -0.2193642489     -175.3556027279
atom        18.8685000000        4.9765400000        9.4875100000 N         0.0000000000         0.0000000000       176.6538521425        0.0918064231      175.3765653531
atom         3.1046000000       10.9722000000       15.1492000000 N         0.0000000000         0.0000000000        91.4984273747      204.5435970084      -84.3851320030
atom         3.5302800000       11.9319000000       14.7546000000 N         0.0000000000         0.0000000000       -98.0015751030     -213.3832921676       88.9928439518
atom         2.9095300000       14.7077000000       14.9015000000 N         0.0000000000         0.0000000000      -156.1917144230      -26.5026807616      191.0993544962
atom         2.2065500000       14.5805000000       15.7668000000 N         0.0000000000         0.0000000000       149.5209082470       28.8995434068     -184.2060868840
atom         3.8299300000       15.6532000000        3.0354100000 N         0.0000000000         0.0000000000      -215.9830444587     -121.1679867663       -7.2020374731
atom         2.8492700000       15.1048000000        3.0018300000 N         0.0000000000         0.0000000000       215.9190059099      121.3044926692        7.8155468558
atom         6.0664100000       12.9596000000       14.7416000000 N         0.0000000000         0.0000000000      -132.8771675321      193.0693696155       62.0442667382
atom         5.4580400000       13.8582000000       15.0183000000 N         0.0000000000         0.0000000000       134.4230281058     -192.9777698745      -52.6811339677
atom        12.3889000000        8.4666800000       12.5463000000 N         0.0000000000         0.0000000000       -43.4139510869       49.5443980308     -346.9908238351
atom        10.8696000000       18.0650000000       12.5461000000 N         0.0000000000         0.0000000000       -75.3614065858     -133.0717760000      173.8461174539
atom        10.5129000000       17.4260000000       13.3910000000 N         0.0000000000         0.0000000000        74.6482498958      134.3398616455     -172.8280073771
atom        16.4060000000       15.8607000000       11.7952000000 N         0.0000000000         0.0000000000       -53.6617579096     -111.2841486212      197.0930295097
atom        16.1413000000       15.3253000000       12.7411000000 N         0.0000000000         0.0000000000        58.9591267700      117.5492963654     -199.1471408627
atom        18.9015000000       16.8690000000        2.0452300000 N         0.0000000000         0.0000000000      -113.4945212698      165.0385040670     -231.4643881396
atom        17.5096000000       19.0889000000       13.2663000000 N         0.0000000000         0.0000000000      -226.4440785489      -64.2692209734       70.9261068326
atom        16.4735000000       18.7972000000       13.5873000000 N         0.0000000000         0.0000000000       226.8757261178       63.7238742440      -70.4514080973
atom         5.3223400000       16.1688000000       12.7681000000 N         0.0000000000         0.0000000000       -79.9346583130        1.3354569756      229.5651905626
atom         4.9615200000       16.1590000000       13.8287000000 N         0.0000000000         0.0000000000        79.8032536959        9.0782439190     -229.2199687738
atom        11.9173000000       19.4368000000       15.5882000000 N         0.0000000000         0.0000000000       245.8205869528      -25.7095269448       12.7247916984
atom        13.0335000000       19.3197000000       15.6465000000 N         0.0000000000         0.0000000000      -245.9289472939       25.6349446408      -12.8618089230
atom        11.7077000000       13.8576000000       12.7803000000 N         0.0000000000         0.0000000000       -92.0240054293      120.0906663202      159.4593163240
atom        11.2608000000       14.5120000000       13.5732000000 N         0.0000000000         0.0000000000        82.8850031993     -127.0368978436     -149.5567404525
atom        12.6336000000       14.8262000000       11.4393000000 N         0.0000000000         0.0000000000       158.4243194344      225.3301118454      -12.6374499950
atom         6.5632200000       10.6415000000       13.1272000000 N         0.0000000000         0.0000000000      -205.1237451504      -69.7819157127     -114.5357805342
atom         5.6212200000       10.3136000000       12.6152000000 N         0.0000000000         0.0000000000       198.6400777940       68.6773466171      109.0406677815
atom         3.0877600000       19.4966000000        7.7304100000 N         0.0000000000         0.0000000000      -147.3558556299      -53.3709452199      194.7839934931
atom         2.4244200000       19.2563000000        8.6061200000 N         0.0000000000         0.0000000000       147.5825182307       53.3983617390     -194.7501944086
atom         1.9531800000        3.1709100000        3.8888100000 N         0.0000000000         0.0000000000      -154.4661159254      182.3081479213       64.9467962098
atom         1.2544900000        3.9995900000        4.1855700000 N         0.0000000000         0.0000000000       153.9592745269     -182.3585210290      -65.0640833004
atom         8.5694000000       11.7714000000       14.5340000000 N         0.0000000000         0.0000000000        69.3770187999      210.2229155428       99.6062064826
atom         8.8604700000       12.7542000000       14.9826000000 N         0.0000000000         0.0000000000       -60.3277819900     -205.9816924243      -92.4332194561
atom         2.2168800000        3.2393900000        7.9546400000 N         0.0000000000         0.0000000000      -222.2474071762      -92.8249254362      -70.4390339200
atom         1.2204000000        2.8230000000        7.6395400000 N         0.0000000000         0.0000000000       222.2780117016       92.9323097776       70.4396884679
atom         1.1852800000        6.8281800000        7.3418100000 N         0.0000000000         0.0000000000       166.3289621023       19.7745011715      186.2955321816
atom         1.9318000000        6.9176100000        8.1784100000 N         0.0000000000         0.0000000000      -166.1661088800      -19.8125325585     -186.3892126306
atom         3.2653800000       19.2941000000        2.9419900000 N         0.0000000000         0.0000000000       -97.8458833384      -70.8074575246      218.5804139484
atom         2.8243100000       18.9744000000        3.9259800000 N         0.0000000000         0.0000000000        98.0101523255       70.8682664594     -218.5365028878
atom        10.3445000000        9.5081300000        1.0210800000 N         0.0000000000         0.0000000000       135.2917045317       42.7416089026     -198.0812175128
atom        10.9675000000        9.7045700000        0.1081700000 N         0.0000000000         0.0000000000      -134.8644509963      -43.8159092920      198.7365982332
atom         0.0278600000        0.7695200000        2.0630500000 N         0.0000000000         0.0000000000      -100.1344387044      -59.2369796208      220.4450121235
atom        19.5413000000        0.5031600000        3.0577200000 N         0.0000000000         0.0000000000        99.9100539189       59.0069897962     -220.6445243000
atom         7.7456900000       16.1733000000       11.1660000000 N         0.0000000000         0.0000000000       228.1588615750       48.6462106463       -5.8656002003
atom         8.8418000000       16.3928000000       11.1552000000 N         0.0000000000         0.0000000000      -227.4263379305      -44.4922499919       -1.5705773388
atom         6.8504200000        4.6207200000        8.2998800000 N         0.0000000000         0.0000000000      -175.4806113075       32.1306227425      176.4509655055
atom         6.0659100000        4.7644200000        9.0931600000 N         0.0000000000         0.0000000000       175.2522909444      -31.9177080174     -176.6338999884
atom        15.3396000000       14.7184000000        8.7155800000 N         0.0000000000         0.0000000000       -68.8161309832      209.8213351382       71.2236149163
atom        15.0063000000       15.7288000000        9.0608500000 N         0.0000000000         0.0000000000        69.6897716088     -210.1971880107      -73.5232626667
atom         4.6226500000        8.9233400000        4.3914900000 N         0.0000000000         0.0000000000      -177.3084838793       93.4228878782      146.7751276486
atom         3.8202300000        9.3506100000        5.0528400000 N         0.0000000000         0.0000000000       177.8656967431      -93.6031932397     -146.2309709567
atom        19.5337000000        8.6468900000       10.4399000000 N         0.0000000000         0.0000000000      -191.3186269023        6.5505726665     -160.5311447311
atom        18.6724000000        8.6750900000        9.7170700000 N         0.0000000000         0.0000000000       190.9479155773       -6.2402567167      160.7945841801
atom        15.9788000000       15.1343000000       16.0511000000 N         0.0000000000         0.0000000000       -25.4054523942      -20.2911076848      241.4226372849
atom        15.8531000000       15.0367000000        0.7255700000 N         0.0000000000         0.0000000000        26.9689458845       20.9332781563     -240.2648967278
atom         9.1095800000        7.0034500000       10.3212000000 N         0.0000000000         0.0000000000      -163.5006666929      122.7212207286      136.4170419834
atom         8.3621000000        7.5670700000       10.9420000000 N         0.0000000000         0.0000000000       163.5868461016     -123.0098641585     -136.0629166178
atom        15.9717000000       12.9258000000       11.3087000000 N         0.0000000000         0.0000000000        92.7456541133     -125.4346151222     -192.8990205183
atom        16.3819000000       12.3430000000       10.4433000000 N         0.0000000000         0.0000000000       -87.3932605614      122.0537604155      184.2887342277
atom        14.2531000000       13.9486000000        5.3780800000 N         0.0000000000         0.0000000000       -84.8982922630     -194.9651895657      123.9079348759
atom        13.8664000000       13.0580000000        5.9421500000 N         0.0000000000         0.0000000000        84.5391544561      195.2100515462     -123.5589294505
atom        13.8360000000       15.5877000000       14.1616000000 N         0.0000000000         0.0000000000      -119.3358694566      171.0238816718     -106.7455041796
atom        13.2590000000       16.3912000000       13.6408000000 N         0.0000000000         0.0000000000       119.3759476441     -165.3201336089      109.5646905235
atom        15.0139000000       13.2528000000       13.8114000000 N         0.0000000000         0.0000000000      -173.3492134312     -130.0223090041     -101.7687801000
atom        14.1962000000       12.6813000000       13.3045000000 N         0.0000000000         0.0000000000       174.1023755574      120.0745109982      108.3004131506
atom         1.7294000000       16.2906000000       11.7990000000 N         0.0000000000         0.0000000000       173.8360361196      -79.3539397059      145.1329141409
atom         2.5427700000       15.9173000000       12.4761000000 N         0.0000000000         0.0000000000      -181.7320056230       82.4512240925     -149.0101831133
atom         8.5164300000        9.0239700000       14.0482000000 N         0.0000000000         0.0000000000       235.3615269769      -37.4208564429      -28.1886788944
atom         9.6183100000        8.8847400000       13.9092000000 N         0.0000000000         0.0000000000      -232.6506580368       26.8893303384       30.2403673098
atom        12.0059000000        6.4534700000        0.1784400000 C         0.0000000000         0.0000000000         2.4294243474       -3.0213807100       -0.2789288979
atom         7.5787600000       19.0405000000       12.6306000000 C         0.0000000000         0.0000000000       -46.6266580031     -113.2045666400      122.7777283792
atom         0.0136500000       16.9930000000       14.7199000000 C         0.0000000000         0.0000000000        -0.1392387454        4.6550691292       11.6353422073
atom         7.6292300000        1.7414700000       14.6548000000 C         0.0000000000         0.0000000000        -4.0840606272       -2.9634255315       -1.9883189952
atom        16.8617000000        9.7100000000       12.6602000000 C         0.0000000000         0.0000000000         0.7194201220        1.9441231167        4.9495433959
atom         8.6616600000        4.2676900000       12.5438000000 C         0.0000000000         0.0000000000        -3.0332951301       -2.1098371934        7.3786392147
atom        10.9397000000       16.5158000000        7.6183000000 C         0.0000000000         0.0000000000      -125.8144541444       -6.2120413962       26.5408946775
atom        11.2605000000       18.6047000000        8.7250300000 C         0.0000000000         0.0000000000       -13.9235398275        0.9882032598        1.2481186214
atom        15.5294000000        9.0968800000       15.7768000000 C         0.0000000000         0.0000000000         5.7917634208       -7.8824494812        2.7770144230
atom        18.3378000000       16.4034000000        7.9500500000 C         0.0000000000         0.0000000000       -79.5942737501       81.0443491558     -125.5524062234
atom         6.7417100000        1.9642200000        1.5401700000 C         0.0000000000         0.0000000000         0.0167591809       -7.2141336325       -4.1143728474
atom         1.0473100000       15.2959000000        6.0499000000 C         0.0000000000         0.0000000000        -3.6010630724       -0.1464089363       -0.8775610604
atom         0.8401700000       12.8158000000        8.9596400000 C         0.0000000000         0.0000000000        -0.5055432395        1.3859372937       -5.4274768461
atom        18.2632000000       17.5972000000        1.3024300000 C         0.0000000000         0.0000000000        87.6317666660      -95.1555450300       93.5615164865
atom         6.5141400000        9.3812700000        7.3066600000 C         0.0000000000         0.0000000000         0.0820409800        5.8665005343        0.6788240440
atom         5.4278600000        5.5588100000        5.1475400000 C         0.0000000000         0.0000000000         6.8074261366        2.3936060615       -1.5642101848