begin
comment generated by PY
lattice        19.9650000000         0.0000000000         0.0000000000
lattice         0.0000000000        19.9650000000         0.0000000000
lattice         0.0000000000         0.0000000000        16.4367122000
atom        10.7941000000       13.9770000000       11.5398000000 H         0.0000000000         0.0000000000        -9.4962183686       -3.4294263371       -9.2830927839
atom         2.3268400000       11.4938000000        6.7922500000 H         0.0000000000         0.0000000000        -0.6595777942        6.2519682321       -0.5401241555
atom         2.9874200000       18.6473000000        8.5001500000 H         0.0000000000         0.0000000000       -27.9765264556       -7.6211190887        9.3502681603
atom         3.9871700000       19.3725000000        7.4103700000 H         0.0000000000         0.0000000000         2.3480019380       13.9724091011      -16.7285827389
atom         4.4623100000       17.9645000000        8.0911500000 H         0.0000000000         0.0000000000         8.9087739686      -22.8343701572       -3.3500519308
atom         4.4356900000       19.3025000000        9.0183300000 H         0.0000000000         0.0000000000        11.1193350405       15.8833905937       20.9503925662
atom         8.6612800000        5.0213800000        7.3683000000 H         0.0000000000         0.0000000000         0.3640568715        7.5768428365      -10.0482187064
atom         8.4343300000        6.5269500000        8.1699000000 H         0.0000000000         0.0000000000        -1.8544600895        4.9522526856      -12.1972542362
atom         9.0878300000        5.6251400000       12.6183000000 H         0.0000000000         0.0000000000        -1.8553825114        8.3232435940        3.8313716889
atom         5.8295900000        5.7415100000        9.3989300000 H         0.0000000000         0.0000000000        -3.3060754658       -0.1735998054        3.2913397756
atom         7.7006700000        3.0030500000        8.8909600000 H         0.0000000000         0.0000000000         4.3819653333       -7.5443735849        0.7488912967
atom         7.1106200000        5.7624400000        7.3349600000 H         0.0000000000         0.0000000000         2.4653570669       10.7137922431       -5.8381466980
atom         6.8715600000        5.7794400000       10.8024000000 H         0.0000000000         0.0000000000        -4.5274543307       -4.8460819225       -0.1295772193
atom         8.3686200000       13.9390000000       14.9993000000 H         0.0000000000         0.0000000000         8.1728196393        4.7598354730      -18.4739433758
atom        12.0186000000       12.4523000000        6.5500700000 H         0.0000000000         0.0000000000        -3.3963805718        8.2447916097       -2.0644033186
atom        10.9727000000        9.7134200000        7.8656600000 H         0.0000000000         0.0000000000         7.0043416715       -2.8271078835       -6.8354231574
atom        13.4496000000        5.9418000000       15.3052000000 H         0.0000000000         0.0000000000         5.5535795356        8.0568250828        8.2589277256
atom        13.3537000000        5.4454800000       13.7675000000 H         0.0000000000         0.0000000000         5.0212959663        2.1600354112      -16.3927058571
atom        12.2072000000        4.9891700000       14.8382000000 H         0.0000000000         0.0000000000         8.4612840344       -3.1236665310        0.4060501294
atom         4.8480800000        5.9796100000        6.0462800000 H         0.0000000000         0.0000000000         1.6580995232       -1.2870322451        1.8115674702
atom         9.2768100000       17.4157000000       10.4595000000 H         0.0000000000         0.0000000000         7.6073058204        0.2562026884        5.4993872477
atom         6.7147500000       13.3253000000        2.8942900000 H         0.0000000000         0.0000000000        -0.0328151598       16.6526674149       -2.4354936572
atom         7.4034500000       12.0405000000        3.2396600000 H         0.0000000000         0.0000000000        15.2643532429       -9.7744438804        7.2026162633
atom        17.0244000000       13.3999000000       12.8329000000 H         0.0000000000         0.0000000000        12.1782984657       12.7842604858       17.3405174410
atom        16.6209000000       12.1565000000       12.1253000000 H         0.0000000000         0.0000000000         1.6993779041      -22.4789148701       -4.8408010570
atom         2.8144100000        6.9814200000        9.6234700000 C         0.0000000000         0.0000000000        -7.5754592036       -4.8043423306       -4.7953487169
atom         6.9587500000        9.8341000000        6.5389300000 C         0.0000000000         0.0000000000         3.9741856628        1.5908319046       -6.5160345674
atom        17.4952000000        9.0848100000       10.2922000000 C         0.0000000000         0.0000000000        -2.3295534996       -4.7069115153      -11.4814087048
atom        17.2342000000       16.0984000000       10.3630000000 C         0.0000000000         0.0000000000        -9.2031879850       -3.2527364182        0.0162115653
atom        10.5165000000       14.3586000000       13.3897000000 C         0.0000000000         0.0000000000        -3.0841176911       -2.2262191840        5.0013485923
atom         1.1502700000       10.7242000000        8.1245100000 C         0.0000000000         0.0000000000        17.4385939517        5.8720457036      -18.4450254485
atom        19.0554000000       17.2309000000        7.6647800000 C         0.0000000000         0.0000000000        -0.8092868719       -5.8086291966       -2.8985264007
atom         9.3419400000        5.5895200000       10.7271000000 C         0.0000000000         0.0000000000       -18.1222700186        3.2397072086        8.4131105496
atom         7.6530000000        4.9352700000        9.0939800000 C         0.0000000000         0.0000000000         7.8842630020      -41.1688202780       46.2800985027
atom        14.7296000000        8.3297400000       12.6133000000 C         0.0000000000         0.0000000000        -4.4880207936       -2.7842152642        0.5084620231
atom         9.1018900000       13.5124000000        0.2897500000 C         0.0000000000         0.0000000000        -8.4360096738        4.7554770294      -19.2750437531
atom        13.5957000000       11.7260000000       13.8805000000 C         0.0000000000         0.0000000000         6.4780769054       11.8785805232       14.3672979252
atom        14.1805000000       12.2464000000        9.4910600000 C         0.0000000000         0.0000000000         1.4451353623        8.9544338536        3.7580852673
atom         5.4463000000       12.8633000000        6.1110400000 C         0.0000000000         0.0000000000        -1.6554244996        0.9094618925       -3.2492542754
atom        19.1216000000       12.9065000000        9.8083800000 C         0.0000000000         0.0000000000        -3.3490833878       -0.9525851173        4.9113893945
atom        10.6541000000       11.1079000000        6.5868100000 C         0.0000000000         0.0000000000        14.6689298932       14.0412678974        0.0744163884
atom        10.7502000000       10.8934000000       10.2453000000 C         0.0000000000         0.0000000000        -5.4059920283       14.5437111175        6.8364378215
atom         7.5828600000       18.7732000000        3.0797000000 C         0.0000000000         0.0000000000         2.9825129166       -9.1228680963       -5.4165537593
atom        10.7939000000        7.1756700000       13.9216000000 C         0.0000000000         0.0000000000         1.3858697539        9.3277149443       -0.4982923214
atom         8.5070100000       19.1914000000        6.7581000000 C         0.0000000000         0.0000000000         3.5760453013       -7.0772591244       -1.6444707393
atom         4.2776200000        7.7019900000        6.6298700000 C         0.0000000000         0.0000000000       -12.3673718989        9.8607364511       -8.6031755863
atom         7.5773200000       18.1144000000        9.8431600000 C         0.0000000000         0.0000000000        19.3174751615      -10.5507772292        8.3896118512
atom        10.2929000000        2.7031400000        5.2298200000 C         0.0000000000         0.0000000000        -0.0877915063       -2.4502524079       -2.1922279362
atom         5.6916400000        0.0971700000       15.7141000000 C         0.0000000000         0.0000000000         4.6710523631       -1.8095612025       -1.8470807141
atom         4.8737800000       17.1072000000        5.0802900000 C         0.0000000000         0.0000000000        -1.7297255853      -14.3298475952       -4.7254752564
atom         3.6080000000        7.6651000000       10.1702000000 O         0.0000000000         0.0000000000        -5.1374058256       -5.9713213628       -4.2448473148
atom         2.0348700000        6.2853600000        9.0663500000 O         0.0000000000         0.0000000000        12.2955844129       11.0010574897        8.6148903447
atom         7.0139600000        9.6713200000        5.3665000000 O         0.0000000000         0.0000000000        -2.1785991523        2.0296280122       20.6947202704
atom         6.8974600000        9.9863500000        7.7122200000 O         0.0000000000         0.0000000000         0.0328382204       -3.2273006337      -14.9740670645
atom        17.6884000000        9.8196600000       11.1981000000 O         0.0000000000         0.0000000000        -2.4685394225       -4.9786800736       -5.8454107706
atom        17.3033000000        8.3548000000        9.3808200000 O         0.0000000000         0.0000000000         3.8252145226       11.5769946763       16.5607019494
atom        16.2409000000       16.0336000000        9.7241300000 O         0.0000000000         0.0000000000        16.8379127970        2.3776808633        8.0507140376
atom        18.2243000000       16.1627000000       11.0094000000 O         0.0000000000         0.0000000000        -8.7143966094       -0.8814663872       -8.5319184930
atom        11.3702000000       14.3974000000       14.2895000000 O         0.0000000000         0.0000000000        -5.1122928888       -2.1390733731       20.9000052688
atom         9.2828200000       14.0901000000       13.3605000000 O         0.0000000000         0.0000000000       -17.4718703224       -8.1885930542       18.9325023730
atom        11.0178000000       14.6989000000       12.1396000000 O         0.0000000000         0.0000000000        27.7313236486       15.1791906391      -34.0724900804
atom         0.7140100000        9.8478500000        8.7748700000 O         0.0000000000         0.0000000000       -12.3591854043       -7.1818848307       14.3708031285
atom        19.2637000000       18.2641000000        8.2035300000 O         0.0000000000         0.0000000000        -1.3618867839      -10.0304159633       -5.5510659358
atom        18.8558000000       16.1956000000        7.1281200000 O         0.0000000000         0.0000000000         2.7112516903       15.6764682964        8.4290684488
atom        10.3177000000        6.2811400000       10.6351000000 O         0.0000000000         0.0000000000        23.4620552135        3.6785724978       -8.2273117143
atom         7.1070300000        3.7413200000        8.6712500000 O         0.0000000000         0.0000000000        -3.9973153924      -19.0076336384       -8.5080738863
atom         8.9315100000        4.6671000000        9.7525000000 O         0.0000000000         0.0000000000       -24.5136853845       10.4376421807      -13.8391421941
atom         8.5265500000        5.5278400000       11.8096000000 O         0.0000000000         0.0000000000         2.7239349917      -16.6663423198        6.5564597081
atom        14.2985000000        8.1280700000       11.5295000000 O         0.0000000000         0.0000000000         7.7147910347        4.0818323009       12.7677952546
atom        15.1472000000        8.5076100000       13.7076000000 O         0.0000000000         0.0000000000        -3.9140437535       -0.3620736643      -13.4391569888
atom         9.9431000000       13.1396000000        1.0248400000 O         0.0000000000         0.0000000000        11.3652527245       -6.3101269342       21.4209199879
atom        13.0674000000       11.4809000000       12.8547000000 O         0.0000000000         0.0000000000         1.6649715665       -2.9920138624        1.8388480985
atom        14.1436000000       11.9722000000       14.9001000000 O         0.0000000000         0.0000000000        -9.1779828061       -6.8125240332      -17.5102430743
atom        13.6305000000       13.2824000000        9.6524000000 O         0.0000000000         0.0000000000         6.1151269402      -18.8968507658       -4.8688196229
atom        14.7495000000       11.2207000000        9.3316300000 O         0.0000000000         0.0000000000        -6.7918387216        9.6637071288        2.2571664394
atom         4.4184800000       12.3483000000        5.8238900000 O         0.0000000000         0.0000000000        12.8774942814        5.0711298106        5.6434695517
atom         6.4686500000       13.3826000000        6.3953600000 O         0.0000000000         0.0000000000       -12.6305849939       -6.4280816373       -3.3034004422
atom        19.9100000000       12.9138000000       10.6932000000 O         0.0000000000         0.0000000000       -10.7309262303       -0.0310394976      -15.4592379341
atom        18.3157000000       12.8904000000        8.9409100000 O         0.0000000000         0.0000000000        13.3583758891        0.8375821643       11.4751592963
atom        11.8944000000       11.5609000000        6.9144500000 O         0.0000000000         0.0000000000         8.2248903567       -6.3211959972        7.6804999998
atom        10.5220000000        9.8362500000        6.9988900000 O         0.0000000000         0.0000000000       -16.9720560048      -10.3363141327       11.4319438293
atom         9.8270000000       11.7579000000        5.9947200000 O         0.0000000000         0.0000000000       -10.7436787133       -4.5981579709       -7.5212207947
atom        11.2745000000        9.8501100000       10.0516000000 O         0.0000000000         0.0000000000        -3.6699017317        5.0261386814       -3.1109371085
atom        10.2230000000       11.9341000000       10.4317000000 O         0.0000000000         0.0000000000         8.9183902171      -17.5136329749       -4.1129871012
atom         7.5782900000       19.9226000000        3.3610200000 O         0.0000000000         0.0000000000        -0.5377258585      -10.5155637724       -0.6801478031
atom         7.5937900000       17.6243000000        2.7932000000 O         0.0000000000         0.0000000000        -2.3667501636       19.6145872621        6.9360363283
atom        13.2371000000        5.1274900000       14.7306000000 O         0.0000000000         0.0000000000       -15.4827827537       -8.7406625736        7.6767872516
atom        10.4058000000        6.0788000000       14.1816000000 O         0.0000000000         0.0000000000        -4.4629309173       -0.7386985345       -3.4164201880
atom        11.1936000000        8.2512800000       13.6790000000 O         0.0000000000         0.0000000000        -0.7268454128       -5.1571225941        0.5416461517
atom         8.7633500000       18.0800000000        6.4374200000 O         0.0000000000         0.0000000000        -6.2568570683       20.4527228796        5.2049732313
atom         8.2565300000        0.3371000000        7.0866900000 O         0.0000000000         0.0000000000         2.3598319992      -12.1967238436       -3.7679551819
atom         3.5943500000        8.6562500000        6.5572000000 O         0.0000000000         0.0000000000         2.1761547343        4.3374123545        6.4067736909
atom         6.4639900000       18.0696000000        9.4527300000 O         0.0000000000         0.0000000000       -17.2959875228        8.0485002250       -6.8145994825
atom         9.8706200000        3.5482600000        5.9477600000 O         0.0000000000         0.0000000000         4.2399354180       -9.3601150143       -7.6657412491
atom        10.7098000000        1.8618700000        4.5139600000 O         0.0000000000         0.0000000000        -6.3437722737       13.3308646554       11.8790186736
atom         4.6628700000        0.5418300000       15.3366000000 O         0.0000000000         0.0000000000         9.7247022783       -4.4094996276        4.5812776497
atom         6.7265500000       19.6214000000       16.0790000000 O         0.0000000000         0.0000000000       -14.0455340988        5.9805225215       -2.3684566441
atom         6.6673000000       12.3804000000        2.7275300000 O         0.0000000000         0.0000000000       -14.5063069086       -6.4115472243       -3.3059140419
atom        16.4120000000       13.0894000000       12.1697000000 O         0.0000000000         0.0000000000       -12.4106796080        7.9821780889      -14.3650610521
atom         4.6536300000       16.0784000000        4.5472400000 O         0.0000000000         0.0000000000         3.3125324192       15.5442160536        6.7123028915
atom         5.0873600000       18.1229000000        5.6549700000 O         0.0000000000         0.0000000000        -0.5578577170       -3.5677896251       -3.7775714304
atom        17.1217000000       18.9590000000        5.2002100000 N         0.0000000000         0.0000000000       -15.3483397587       -4.2945427957       15.0899463183
atom        16.3298000000       18.7500000000        5.9701000000 N         0.0000000000         0.0000000000        15.5830269559        4.1256473421      -15.0333096124
atom         6.1829600000        2.8328300000        5.1171200000 N         0.0000000000         0.0000000000         2.4569169063        2.8564870217       -0.0179872274
atom         5.3929500000        2.1975100000        5.6029100000 N         0.0000000000         0.0000000000        -2.6635394165       -2.7703558749        1.2657242987
atom        14.5442000000        1.7052000000        4.3865200000 N         0.0000000000         0.0000000000        -6.2231194865      -16.9170335373      -13.4674753418
atom        14.2497000000        0.8579200000        3.7087700000 N         0.0000000000         0.0000000000         5.9442021583       16.8787760881       13.5350427475
atom         1.5778100000       11.6656000000        7.4671500000 N         0.0000000000         0.0000000000        -2.9223710074       -5.4303900881        4.9036871715
atom         1.3563400000       17.7212000000        4.9893300000 N         0.0000000000         0.0000000000        -2.6337682490        7.9167783747        0.2570789892
atom         0.8119100000       18.6995000000        4.8931600000 N         0.0000000000         0.0000000000         3.1350584417       -7.5121579993       -0.2915083874
atom        10.6426000000       15.0805000000        8.0885400000 N         0.0000000000         0.0000000000       -22.1244050655       -8.2866465043       -1.9251637297
atom         9.5819200000       14.7135000000        8.0190400000 N         0.0000000000         0.0000000000        21.8518755091        8.0381229784        2.2743926688
atom         3.9535600000       18.8246000000        8.2671000000 N         0.0000000000         0.0000000000         5.7306845443        1.7301176146       -8.6328775722
atom         6.7633900000        5.7013900000        9.7936000000 N         0.0000000000         0.0000000000        -9.1374193021       32.5559362010       17.5529281487
atom         7.9915600000        5.6382600000        7.8687200000 N         0.0000000000         0.0000000000        24.6237995013        9.7663035069      -28.8276682222
atom        12.8702000000        4.0106000000        1.9855700000 N         0.0000000000         0.0000000000        -5.6641318027      -16.4087559985       -9.6082234503
atom        12.5589000000        3.0935900000        1.4149800000 N         0.0000000000         0.0000000000         5.4536812416       15.9646329044       10.2150387107
atom         8.1904500000       13.8982000000       16.0154000000 N         0.0000000000         0.0000000000        -4.3700660905       -2.0385524443       13.1090683046
atom         3.0659800000       13.3912000000        2.3284800000 N         0.0000000000         0.0000000000        11.4518681428       13.9889435140      -18.6121913611
atom         3.5427200000       14.0048000000        1.5149500000 N         0.0000000000         0.0000000000       -10.9037189165      -13.9881133343       19.1102761376
atom         5.1430900000        8.6056700000       13.4371000000 N         0.0000000000         0.0000000000       -16.0063955568      -14.4023499582        8.3728237722
atom         4.3559800000        7.9214300000       13.8567000000 N         0.0000000000         0.0000000000        16.1771127938       14.2376284637       -8.7625239731
atom         4.2076400000       19.3583000000        2.3973800000 N         0.0000000000         0.0000000000        -0.0107231548       -7.5863668428       -3.5018825789
atom         4.1806300000       18.3666000000        1.8720700000 N         0.0000000000         0.0000000000        -0.1374639267        7.3891530362        3.7226642656
atom         0.7565500000       19.7715000000        1.2644900000 N         0.0000000000         0.0000000000         8.8226197612       -2.8122568906      -20.1639356368
atom         1.1938100000       19.6305000000        0.2385300000 N         0.0000000000         0.0000000000        -8.7334907431        2.8920233262       20.1628979122
atom         5.0120600000        6.7241000000        6.7357400000 N         0.0000000000         0.0000000000        12.1229992716      -16.4098629048        1.6762251139
atom         8.7215800000       18.2420000000       10.2391000000 N         0.0000000000         0.0000000000        -8.4149323329        0.0629783566       -5.6424779481
atom         9.3156100000       14.8353000000        4.4818900000 N         0.0000000000         0.0000000000        20.5737446355        9.4362148227       -5.9322106734
atom        10.3257000000       15.2788000000        4.2659100000 N         0.0000000000         0.0000000000       -21.4561334447       -9.7227651923        5.1030225485
atom         0.7039900000       16.0583000000        0.7462400000 N         0.0000000000         0.0000000000        -3.8504427621        2.2197852911       22.1433377754
atom         0.5166600000       16.1748000000        1.8482900000 N         0.0000000000         0.0000000000         4.0109902974       -2.1042750061      -21.9545871900
atom         6.8001500000        0.4420700000       12.3774000000 N         0.0000000000         0.0000000000        -2.8552417521        5.1383743686       -3.9782212587
atom         6.4405600000        1.1612200000       11.5924000000 N         0.0000000000         0.0000000000         2.5182810246       -5.0682011210        3.7132555620
atom         4.5148600000       10.7538000000        0.0197600000 N         0.0000000000         0.0000000000       -20.4314379938        3.5029203036      -13.3015777594
atom         3.5821300000       10.9384000000       15.8556000000 N         0.0000000000         0.0000000000        20.6916993386       -3.5359430083       13.1645981042
atom         2.2834400000       10.5397000000       12.2794000000 N         0.0000000000         0.0000000000       -20.4024278244      -15.3369017269        5.3706171476
atom         1.4095300000        9.8739200000       12.5212000000 N         0.0000000000         0.0000000000        20.1263700041       15.3910940148       -5.8729911861
energy    -22428.2009534779
charge 0
end
begin
comment generated by PY
lattice        20.8106903030         0.0000000000         0.0000000000
lattice         0.0000000000        20.8106903030         0.0000000000
lattice         0.0000000000         0.0000000000        17.1329490200
atom        11.0157500000       14.8645500000       13.8865200000 H         0.0000000000         0.0000000000       -24.9210038440      -48.8781690234       -3.0230994811
atom         4.7151800000        9.8022900000        8.4364300000 H         0.0000000000         0.0000000000        39.8330841555      -14.4146642908      -11.1239010290
atom         2.4952900000       18.2838500000        9.3561900000 H         0.0000000000         0.0000000000        24.8034411703      -30.5273228529      -42.3517341488
atom         2.9011500000       19.8108500000        9.1634400000 H         0.0000000000         0.0000000000       -28.8194125460       40.9180829395       -2.6404788685
atom         4.2388300000       19.1206500000        9.5982800000 H         0.0000000000         0.0000000000       -17.6981404195      -35.0707350828        8.4055928109
atom         2.6618400000       18.8285500000       10.6611200000 H         0.0000000000         0.0000000000        33.8255346718       39.5582946654       -7.7468682570
atom         5.3978800000        2.3090100000        9.1411000000 H         0.0000000000         0.0000000000        64.1951464368       -5.4373543736       19.9580971853
atom         7.5837400000        2.5698000000        8.8554600000 H         0.0000000000         0.0000000000       -62.6696220042       21.4650117557        8.3440672689
atom        10.9805500000        3.1974400000       13.9759200000 H         0.0000000000         0.0000000000        12.0521342075        2.2097539527       27.1715980273
atom         5.5296900000        3.6644500000       11.7440200000 H         0.0000000000         0.0000000000       -71.7986011457      137.0078582419       16.6344265214
atom         8.6594300000        3.4723800000       11.7100200000 H         0.0000000000         0.0000000000         3.8518725161        0.7356545421        9.8805685223
atom         6.2249000000        3.8220900000        8.9539900000 H         0.0000000000         0.0000000000        31.8206506276      -36.3184029724       21.6036748309
atom         5.1925900000        2.1182400000       11.6630200000 H         0.0000000000         0.0000000000        41.2660435484       14.6879779059      -12.0729117613
atom         9.7620900000       16.5208500000        1.9417700000 H         0.0000000000         0.0000000000       -28.5062272435       30.7909510378      -43.9593541324
atom         9.1697400000       10.7645500000        7.1661700000 H         0.0000000000         0.0000000000        16.0474433323       31.0995472913       14.2962944979
atom        11.6128500000       10.6092500000        9.0808800000 H         0.0000000000         0.0000000000       -24.4528055378      -62.0326896681      -68.9486402591
atom        11.9802500000        8.6588200000       17.1091800000 H         0.0000000000         0.0000000000        37.9400898903       24.2535854635      -11.1455087625
atom        12.7029500000        8.3955100000        1.3352300000 H         0.0000000000         0.0000000000        30.6527952946       27.8372176851      -11.5034545887
atom        13.5273500000        9.6595400000        0.1114900000 H         0.0000000000         0.0000000000        13.7383445387       14.3909119264       -5.2398638404
atom         3.2110300000        6.6575700000        8.7340500000 H         0.0000000000         0.0000000000      -126.9858824392       43.0908247126       63.2797349229
atom         9.3746100000        1.1563500000        9.1525600000 H         0.0000000000         0.0000000000         6.7371391017        0.2347333182        7.5973897848
atom        10.4783500000       12.3583500000        4.7928700000 H         0.0000000000         0.0000000000         9.0898453916        1.4934010893       15.1774380374
atom         9.1932000000       11.5243500000        4.5606600000 H         0.0000000000         0.0000000000        17.5042012108        9.2974825659       -8.4292298727
atom        15.2656500000       14.8802500000       11.9224200000 H         0.0000000000         0.0000000000       -16.6258941186       36.5932155231       17.2743797893
atom        15.9228500000       13.5619500000       11.9193200000 H         0.0000000000         0.0000000000       -23.5247799041       22.3489225610      -40.1281208068
atom         1.3848200000        6.7412400000       10.6997200000 C         0.0000000000         0.0000000000        79.2426844073       -3.1295700313       71.1975279618
atom         7.6128300000        8.3501600000        6.7566500000 C         0.0000000000         0.0000000000       -30.4804407588       28.4890701958      156.4342483717
atom        18.2407500000        9.7858800000        9.4579800000 C         0.0000000000         0.0000000000        69.5435562767      -31.7950303588      -46.6998235370
atom        18.9530500000       17.8123500000       12.0573200000 C         0.0000000000         0.0000000000      -129.1828377877      -90.0935716083      115.4530948334
atom        11.8283500000       16.2936500000       14.2051200000 C         0.0000000000         0.0000000000        85.7469580952       11.3051108152        8.1457696165
atom         3.2259300000       10.8391500000        8.1659900000 C         0.0000000000         0.0000000000        70.2894497022      -57.2365107714       19.8663853858
atom        19.9355500000       20.0610500000        7.8075800000 C         0.0000000000         0.0000000000       -39.4610022133      -33.6540333762        3.8249839171
atom        11.1006500000        4.3743500000       12.3710200000 C         0.0000000000         0.0000000000       -55.9223362613       87.5897726079      225.6585544217
atom         7.0393500000        2.9013400000       10.7582200000 C         0.0000000000         0.0000000000       -67.9918350615      -12.9982854319       -0.6248024878