begin
comment generated by PY
lattice        19.9650000000         0.0000000000         0.0000000000
lattice         0.0000000000        19.9650000000         0.0000000000
lattice         0.0000000000         0.0000000000        16.4367122000
atom        17.0982000000        0.8430300000        5.9941800000 C         0.0000000000         0.0000000000        -6.6818162705       -5.1220387948       -1.4227274881
atom         3.1903900000       15.6113000000        4.1967200000 C         0.0000000000         0.0000000000         5.6526079962      -19.0595364158       27.0634620757
atom        12.7535000000       16.3350000000       14.5752000000 C         0.0000000000         0.0000000000        -1.1862750510       -2.0747442190       -0.4148323171
atom        11.4908000000        0.3792100000        7.5290700000 C         0.0000000000         0.0000000000        53.0123488584       88.4670897126     -120.0937570335
atom        18.8119000000        4.3108300000        0.1133000000 C         0.0000000000         0.0000000000        16.0590067700      154.7697297422        6.0731870517
atom        15.2071000000        3.9964100000        5.8964500000 C         0.0000000000         0.0000000000        -7.7604190560       -3.1764526154        0.6363733279
atom        11.3136000000       11.3493000000       12.5970000000 C         0.0000000000         0.0000000000        -1.0213793953        2.8867108454        4.7844024224
atom         1.5593000000        5.4483300000       14.2865000000 C         0.0000000000         0.0000000000        -0.9573883177        0.7068747534        0.5463301815
atom        17.0915000000       10.7543000000        6.6112400000 C         0.0000000000         0.0000000000         7.3397343637        5.1968381061       -3.2940181721
atom         0.0705400000        8.2867500000        3.3365200000 C         0.0000000000         0.0000000000        10.2827764226        4.5975026166       -6.4430464107
atom        19.5118000000        7.0037300000        6.4335600000 C         0.0000000000         0.0000000000        14.3684576693        4.6148188426        4.9791180365
atom         2.3278000000        2.7984800000        0.4214700000 C         0.0000000000         0.0000000000        -2.2496213830      -10.0515630371       -7.4600229943
atom         8.4843300000        9.4675300000       13.0680000000 C         0.0000000000         0.0000000000         0.9532422355        3.3696461359       -4.7972236702
atom        18.0636000000        7.2261500000        9.9237200000 C         0.0000000000         0.0000000000       169.7874174719      -47.7329089774        3.8660046470
atom        19.2997000000       10.3896000000        9.2847300000 C         0.0000000000         0.0000000000        -0.8335683809       -0.3666516963        0.3168454114
atom        12.4760000000       18.1401000000        1.4700000000 C         0.0000000000         0.0000000000         1.9906238409        3.2463949667        3.5631255027
atom        13.4479000000        9.7189800000       14.6907000000 C         0.0000000000         0.0000000000         0.9962585315        0.8196362584       -5.8471968122
atom         8.4877900000        6.3059700000       16.2582000000 C         0.0000000000         0.0000000000        -0.0511262049       -2.0596939480       -4.9757302614
atom        16.2136000000        7.7668200000        3.5563700000 C         0.0000000000         0.0000000000        -1.2277872228       -0.4466086562        3.4121438299
atom         5.5982700000        3.7350500000       13.8321000000 C         0.0000000000         0.0000000000         5.4509967268       -6.2269033643       -9.2867168544
atom         4.9427900000       16.2281000000        3.6799500000 H         0.0000000000         0.0000000000      -105.1493314390      -50.4480229805      -32.7427564023
atom         3.4304200000       17.4319000000        4.7818900000 H         0.0000000000         0.0000000000       -71.2123893571      -84.3903312780      -47.1896535820
atom        12.1762000000        1.9720000000        6.6780200000 H         0.0000000000         0.0000000000       -23.5909323814      -84.6079443342       -7.2934312988
atom        13.5241000000        8.6466200000        9.0367600000 H         0.0000000000         0.0000000000        52.2355446200       -5.7667574034      -18.6323482442
atom        14.4520000000        8.6721400000        7.6680700000 H         0.0000000000         0.0000000000        -2.8148727085      -13.3997241880       63.0179273733
atom        14.7451000000        7.5449800000        8.8515000000 H         0.0000000000         0.0000000000       -20.6362572917       61.4062080877      -13.0471400105
atom        15.1456000000        9.1171100000        9.0814800000 H         0.0000000000         0.0000000000       -46.4818891662      -35.9337959038      -21.3439474086
atom        19.6151000000        5.9764500000        0.6571400000 H         0.0000000000         0.0000000000       -62.0404834646      -41.2402224514      -47.5320514561
atom         3.8343300000       11.0796000000        4.0199700000 H         0.0000000000         0.0000000000       -55.3071836159        2.0099607351     -112.4885267509
atom         2.8070500000       10.4846000000        3.1157000000 H         0.0000000000         0.0000000000        84.5269661025       79.0439815351       15.6014744844
atom        19.9216000000        7.3293800000        9.4587000000 H         0.0000000000         0.0000000000       -60.3482765579      -39.9280404667       48.7475413242
atom         1.7342400000       13.0782000000        5.6177000000 H         0.0000000000         0.0000000000       -44.2244783180     -106.3181697738       49.1305927308
atom         0.5294300000       12.2211000000        5.9555700000 H         0.0000000000         0.0000000000       114.5257384937       15.9550820657        1.1352337153
atom        14.9402000000        1.0310100000        1.8595700000 H         0.0000000000         0.0000000000        97.1210926360       64.7411492723        0.0276348665
atom        16.2850000000        1.3381300000        2.4333600000 H         0.0000000000         0.0000000000       -82.4466337970       22.9348282433      -75.6643763211
atom        17.1432000000        0.5002200000        4.8617500000 O         0.0000000000         0.0000000000        -4.7802271998       60.6730121485      197.6580249637
atom        17.0371000000        1.1705600000        7.1288600000 O         0.0000000000         0.0000000000        11.8901521885      -55.1057035071     -196.8841891394
atom         4.1908000000       15.7125000000        3.3043500000 O         0.0000000000         0.0000000000        13.7777423071       26.8520202719      117.1128038754
atom         2.7097200000       16.8308000000        4.4855000000 O         0.0000000000         0.0000000000       105.7687433622      -36.3013331289       31.0589833348
atom         2.7522400000       14.5713000000        4.6451500000 O         0.0000000000         0.0000000000        61.6067528828      167.3979159319      -83.0000132211
atom        13.7279000000       16.9691000000       14.7928000000 O         0.0000000000         0.0000000000      -167.5192471924     -108.2174803081      -37.0608749845
atom        11.7828000000       15.6974000000       14.3565000000 O         0.0000000000         0.0000000000       168.0568125819      110.5526370765       37.3798344471
atom        11.0782000000       19.7079000000        8.4272400000 O         0.0000000000         0.0000000000        64.7941156541       93.0109669055     -146.5352369934
atom        18.6944000000        3.1423200000        0.1023000000 O         0.0000000000         0.0000000000        13.4574640343      185.8234924880       -4.4709978605
atom         3.4918800000       11.1477000000        3.1225200000 O         0.0000000000         0.0000000000       -29.0850639700      -80.7283395060       96.2496898636
atom        14.7703000000        3.3454800000        5.0094600000 O         0.0000000000         0.0000000000        78.0180929596      115.1057891071      155.5878388490
atom        15.6260000000        4.6440900000        6.7947800000 O         0.0000000000         0.0000000000       -69.9185415002     -110.9067298292     -155.9595531166
atom        11.6255000000       10.6291000000       11.7087000000 O         0.0000000000         0.0000000000       -54.1633107941      123.8813130128      153.2390100700
atom        11.0040000000       12.0653000000       13.4869000000 O         0.0000000000         0.0000000000        55.0287739612     -127.1225245765     -157.4971197205
atom         1.9404000000        6.4774200000       14.7299000000 O         0.0000000000         0.0000000000       -65.8961355219     -179.3518207636      -77.9924213262
atom         1.1814300000        4.4196700000       13.8384000000 O         0.0000000000         0.0000000000        66.3818146114      178.9924859796       78.5598312589
atom        16.1763000000       10.2232000000        7.1459400000 O         0.0000000000         0.0000000000       150.9042793686       87.5694494889      -89.1928972766
atom        18.0005000000       11.2832000000        6.0803300000 O         0.0000000000         0.0000000000      -158.2449542135      -92.5758565663       91.4063396032
atom         0.4030800000        9.3121500000        3.8243700000 O         0.0000000000         0.0000000000       -61.7341439946     -181.2662448894      -83.5839861044
atom        19.7247000000        7.2605900000        2.8307300000 O         0.0000000000         0.0000000000        50.5509798140      176.5579992475       90.2484940426
atom         0.6970500000        6.7379800000        6.5293300000 O         0.0000000000         0.0000000000      -203.7758667164       44.5702021998      -18.1231859204
atom        18.3700000000        7.2928600000        6.3459000000 O         0.0000000000         0.0000000000       189.7601383497      -49.7368021263       12.7591813642
atom         2.3166700000        3.8384200000        0.9843700000 O         0.0000000000         0.0000000000         2.5652118943     -176.4931118602      -94.9529849028
atom         2.3361100000        1.7582100000       16.2917000000 O         0.0000000000         0.0000000000        -0.8019096196      185.8781083275      102.0851899108
atom         7.8414100000       10.2644000000       12.4735000000 O         0.0000000000         0.0000000000       111.9222105772     -139.7930370083      104.7811321780
atom         9.1393100000        8.6763000000       13.6528000000 O         0.0000000000         0.0000000000      -113.1549397160      135.9246277133      -99.1185119594
atom        16.9379000000        7.5692000000        9.8321700000 O         0.0000000000         0.0000000000       166.6316889945      -57.8277183076       20.6149521046
atom        18.4826000000       10.9734000000        9.9088100000 O         0.0000000000         0.0000000000       141.3678966304     -100.1643695126     -107.7186909891
atom         0.1494900000        9.7987800000        8.6605400000 O         0.0000000000         0.0000000000      -139.8913343469      100.0075250598      107.3550584341
atom         1.4774300000       12.2359000000        6.0377400000 O         0.0000000000         0.0000000000       -67.6157074611       91.7776181158      -51.1145335204
atom        13.3239000000       18.9548000000        1.5946500000 O         0.0000000000         0.0000000000      -146.8812280636     -141.1754457960      -22.5087420254
atom        11.6264000000       17.3282000000        1.3558300000 O         0.0000000000         0.0000000000       145.1907095609      138.1751235069       18.3150733386
atom        12.5530000000        9.0447100000       15.0657000000 O         0.0000000000         0.0000000000       154.3749217897      116.4194155791      -63.0702646181
atom        14.3396000000       10.3941000000       14.3004000000 O         0.0000000000         0.0000000000      -155.2017131878     -117.3716821888       69.1087026204
atom        15.6768000000        1.6289600000        1.7630100000 O         0.0000000000         0.0000000000       -15.6118714506      -87.3486141578       75.4250566609
atom         8.7803600000        7.0616900000        0.6799000000 O         0.0000000000         0.0000000000       -50.6957554858     -129.6376511657     -146.2562486112
atom         8.1996100000        5.5500000000       15.3938000000 O         0.0000000000         0.0000000000        49.5826276507      131.2557436675      151.3271824454
atom        15.9550000000        6.6127200000        3.5610700000 O         0.0000000000         0.0000000000        44.9048810978      201.6601557488       -1.5938858934
atom        16.4738000000        8.9234000000        3.5647100000 O         0.0000000000         0.0000000000       -43.9867983435     -201.0539449776       -1.7313000518
atom         4.8547000000        4.0831900000       14.6790000000 O         0.0000000000         0.0000000000       124.2933432269      -57.2602074053     -141.1612648067
atom         6.3370200000        3.3784300000       12.9790000000 O         0.0000000000         0.0000000000      -129.8375298128       64.1334938411      150.6252914564
atom         5.9467600000        8.6343700000       15.4925000000 N         0.0000000000         0.0000000000        61.9646119413      231.5845549989       54.5445436292
atom         6.2262000000        9.6937400000       15.7419000000 N         0.0000000000         0.0000000000       -60.9744449491     -231.6812410161      -54.9049896164
atom        11.9051000000        0.9929900000        6.5573800000 N         0.0000000000         0.0000000000       -93.6609642751      -96.4872320843      274.6728522931
atom        12.2235000000        7.6633000000        2.0768500000 N         0.0000000000         0.0000000000       166.5325281224      165.8604779690       65.2977072244
atom        12.9916000000        8.4265400000        2.3766000000 N         0.0000000000         0.0000000000      -166.0758833759     -166.3786846717      -64.9440632624
atom        14.4493000000        8.5015500000        8.6712300000 N         0.0000000000         0.0000000000        17.3301675924       -6.8538405314       -9.5055504374
atom        18.8832000000        5.5332400000        0.0925200000 N         0.0000000000         0.0000000000        34.0623714064     -299.0059846980       44.8928929235
atom        14.5291000000       18.5394000000        8.4136100000 N         0.0000000000         0.0000000000       146.7416083682       22.5443713509      199.6361528062
atom        15.1926000000       18.6397000000        9.3158400000 N         0.0000000000         0.0000000000      -147.0869231692      -22.3463508782     -199.5533698030
atom        13.4053000000        4.5376500000        1.6997700000 N         0.0000000000         0.0000000000        -5.7894005472      -48.4153694235     -243.1362171598
atom        13.3785000000        4.3189900000        0.5976400000 N         0.0000000000         0.0000000000         6.2627379768       47.9051641046      243.3263034781
atom         6.0845200000        6.9471000000       12.5145000000 N         0.0000000000         0.0000000000      -241.2126112834       -9.3412478249      -41.3901410528
atom         4.9781900000        6.8997300000       12.3237000000 N         0.0000000000         0.0000000000       241.3902800393        9.3777598313       41.8248645788
atom         5.7603600000        5.2188100000        1.7076300000 N         0.0000000000         0.0000000000       110.5206974519     -218.6884768579       20.6062130133
atom         6.2638700000        4.2191600000        1.8038000000 N         0.0000000000         0.0000000000      -110.1458686833      218.9565673272      -21.0507993832
atom        15.8082000000        7.8334200000        0.0794900000 N         0.0000000000         0.0000000000       -66.7101449098     -176.6628223759     -157.0853146656
atom        15.5042000000        7.0277800000       15.7938000000 N         0.0000000000         0.0000000000        66.3780792984      176.7289485716      157.4477401440
atom         9.6236100000       10.7487000000        0.3113000000 N         0.0000000000         0.0000000000       111.3680546794      -56.9566892459      214.3299946731
atom        10.1284000000       10.4931000000        1.2824400000 N         0.0000000000         0.0000000000      -111.4264400792       56.5774076685     -214.5466097236
atom        12.3392000000       18.5454000000       11.8057000000 N         0.0000000000         0.0000000000         7.7101427177     -219.0784454534     -116.7395079443
atom        12.3749000000       17.5544000000       11.2762000000 N         0.0000000000         0.0000000000        -7.6429291165      218.8614584572      117.2110013238
atom        19.2202000000        6.8407800000       10.0307000000 N         0.0000000000         0.0000000000      -276.6803719786      146.2031809593      -73.6210037362
atom         9.4471400000        7.4806100000        4.3610900000 N         0.0000000000         0.0000000000      -121.6593037321     -214.1575350159       14.5711311624
atom         8.8905500000        6.5060600000        4.4275000000 N         0.0000000000         0.0000000000       121.9332571306      214.0105664789      -14.7071365879
atom         8.6736800000       16.8365000000        3.6154400000 N         0.0000000000         0.0000000000       -99.7561895536      168.0586785166     -147.5842149938
atom         8.2151600000       17.6071000000        2.9383500000 N         0.0000000000         0.0000000000        99.5188610252     -168.2738064733      147.7755095746
atom         9.8763400000        3.9196800000        2.1005200000 N         0.0000000000         0.0000000000         2.0041342390     -139.5765828952     -203.1270888790
atom         9.8862700000        3.2821900000        1.1752400000 N         0.0000000000         0.0000000000        -2.3009986857      140.0544737355      202.8265360128
atom         4.6349200000        0.8562900000        5.4907600000 N         0.0000000000         0.0000000000        80.2263259884       14.9504528331     -231.3783112651
atom         5.0034800000        0.9269000000        4.4310200000 N         0.0000000000         0.0000000000       -80.3805089067      -15.2435822799      231.2752631459
atom        13.4945000000        1.8064900000       10.2107000000 N         0.0000000000         0.0000000000       133.2174612302       81.2165989319     -188.5372160776
atom        14.1054000000        2.1811100000        9.3443100000 N         0.0000000000         0.0000000000      -133.8770215320      -81.6587054611      187.6061352088
atom         6.0343500000        8.4345900000        2.9727300000 N         0.0000000000         0.0000000000       153.3595288685      195.1803075826      -29.0637687904
atom         6.7268200000        9.3107000000        2.8406200000 N         0.0000000000         0.0000000000      -153.8982741411     -194.4502544942       29.1293631673
atom         8.4593100000        0.0136800000        5.7086300000 N         0.0000000000         0.0000000000       -96.7712373203      117.0982416483      195.0189391543
atom         8.0184400000        0.5480400000        6.5939800000 N         0.0000000000         0.0000000000        97.1799998725     -117.3947929667     -194.6974134936
atom         0.4131300000        1.3606100000        3.0283000000 N         0.0000000000         0.0000000000       226.1417344962      -58.3742182453       80.0994847577
atom         1.4428100000        1.0943800000        3.3923600000 N         0.0000000000         0.0000000000      -225.8734422753       58.6520268303      -80.3994988805
atom         5.4623500000       17.4143000000        5.2987600000 N         0.0000000000         0.0000000000       116.0011417021      -12.8405670950      167.9605142468
atom         6.1204500000       17.3773000000        6.2123600000 N         0.0000000000         0.0000000000      -127.6251104839        7.6743607995     -178.5874404294
atom        19.0748000000        3.6447700000        5.5916100000 N         0.0000000000         0.0000000000      -124.9661575085       52.8157017342     -190.5948992756
atom        18.4752000000        3.8976200000        4.6764600000 N         0.0000000000         0.0000000000       124.3795133549      -53.0054406752      191.2144102782
atom        12.0358000000        5.6244100000        6.4796900000 N         0.0000000000         0.0000000000        96.8648148986      120.1072189063     -167.3773141419
atom        12.5153000000        6.2252800000        5.6590500000 N         0.0000000000         0.0000000000       -96.6232512881     -120.6841991485      166.9049340610
atom         2.6312500000        3.7127000000        5.6189800000 N         0.0000000000         0.0000000000        63.5349276362      113.1260623883     -208.5038975279
atom         2.9227800000        4.2310300000        4.6650800000 N         0.0000000000         0.0000000000       -63.5965062483     -113.1817589427      208.5605752792
energy    -25977.7013288205
charge 0
end
begin
comment generated by PY
lattice        21.5407440080         0.0000000000         0.0000000000
lattice         0.0000000000        21.5407440080         0.0000000000
lattice         0.0000000000         0.0000000000        17.7339849660
atom        16.3355700000       21.0139700000        5.9014300000 C         0.0000000000         0.0000000000       -20.3594801574      -40.1279397686       32.7797259020
atom         4.8756800000       17.6130700000        2.6729300000 C         0.0000000000         0.0000000000        23.9198589296      -50.5674843208       -1.2940206322
atom        13.6799700000       18.3800700000       16.6771400000 C         0.0000000000         0.0000000000        41.2034215330       18.6373124851      -16.1374944927
atom        11.1987700000       17.7537700000        7.9459700000 C         0.0000000000         0.0000000000      -164.6165467227       21.3469234090        4.4366264977
atom        19.9663700000        3.5448900000        1.5128500000 C         0.0000000000         0.0000000000        85.4205311998      105.7675138069     -112.1663860125
atom        17.1428700000        5.2299400000        6.9377600000 C         0.0000000000         0.0000000000        21.7001578799      -62.8221433984       40.3926384604
atom        12.1302700000       14.8990700000       15.7411400000 C         0.0000000000         0.0000000000      -109.1959429174       60.4086137990       80.1045180159
atom         2.0151700000        6.3680500000       16.8879400000 C         0.0000000000         0.0000000000       165.2296570867       33.4595733782      -32.5565006374
atom        20.0002700000       11.4969700000        6.3696700000 C         0.0000000000         0.0000000000         1.5577558207      -27.1408304246     -114.8960394419
atom         0.1962600000        7.9357700000        2.1917000000 C         0.0000000000         0.0000000000       150.8954201981      -16.9611257173        6.2077245595
atom        20.7541700000        7.1601300000        6.7146100000 C         0.0000000000         0.0000000000        54.5571188740      -37.2188718111      -34.0784996119
atom         3.4396100000        3.5960500000        1.2246700000 C         0.0000000000         0.0000000000         2.3252339189       30.0835662669      114.7276440243
atom         9.8919400000       10.0348800000       12.2916400000 C         0.0000000000         0.0000000000        -3.1528931963       85.1564767647      -23.8539270384
atom        17.8952700000        8.4512100000       11.1514400000 C         0.0000000000         0.0000000000      -118.0898260139      107.5645232656        5.3624875487
atom         2.5767500000       10.6193300000        7.0873000000 C         0.0000000000         0.0000000000       -12.2824944929       84.0644028644      -45.3266524961
atom        12.0442700000       20.9578700000        3.6137900000 C         0.0000000000         0.0000000000        47.0477882574       17.2261182863       -0.1720954155
atom        14.4453700000       11.9459700000       17.4324400000 C         0.0000000000         0.0000000000      -145.8674874139      -12.7098346992      -34.2186769813
atom         7.1414300000        7.8082500000       17.5863400000 C         0.0000000000         0.0000000000      -126.0147679038      -34.2358313049       12.3713458487
atom        17.5127700000        9.5382400000        3.4191100000 C         0.0000000000         0.0000000000        -0.2240723285      -14.1863248002      -19.7445897718
atom         5.5380200000        2.0335100000       15.9772400000 C         0.0000000000         0.0000000000       -18.6274007879      -81.9785841476     -173.5248541634
atom         5.4050900000       16.8358700000        4.3896000000 H         0.0000000000         0.0000000000        26.2061189207       67.3523278424      -88.1258727958
atom         4.7259400000       19.5308700000        3.1553200000 H         0.0000000000         0.0000000000       -95.0578631879     -128.3336910996       15.2044416862
atom        10.5983500000       15.8372700000        8.1237500000 H         0.0000000000         0.0000000000       -21.0933110240      138.6018809679       41.0237871151
atom        17.7620700000        9.6315300000        7.6693300000 H         0.0000000000         0.0000000000         5.3652341501      -37.5306248084       17.6524504409
atom        18.4011700000        8.4719200000        6.9691900000 H         0.0000000000         0.0000000000        12.9748843345       16.0180546627       60.7902001629
atom        17.4112700000        7.9608300000        8.1833200000 H         0.0000000000         0.0000000000        77.0201705644       90.8090060030      -17.2142207216
atom        18.7487700000        8.9876400000        8.5283900000 H         0.0000000000         0.0000000000        87.0526789816       15.6691515758       74.0838048143
atom        19.8782700000        5.0785400000        0.3326500000 H         0.0000000000         0.0000000000        50.7348945949      -76.7243221859       39.3648958412
atom         3.1955800000        8.9440700000        0.2460000000 H         0.0000000000         0.0000000000      -120.5244890425      130.5833846074      -10.8845091503
atom         2.6112700000       10.4810000000        0.6029300000 H         0.0000000000         0.0000000000       -11.1406377437     -125.5539821498      -63.5911835195
atom        16.3701700000        7.2567700000       10.9576400000 H         0.0000000000         0.0000000000        44.7889322312       82.2471800800       47.2574065389
atom         1.0380500000       13.4751700000        5.8851300000 H         0.0000000000         0.0000000000        20.2865958444       29.6194367087       -6.5969062153
atom         1.9738900000       13.8063700000        4.9399200000 H         0.0000000000         0.0000000000       -62.9923603047       58.2154204593      113.8654619750
atom        16.1599700000        3.6892900000        2.9073400000 H         0.0000000000         0.0000000000        78.4056639218       58.9057489138      124.6091204934
atom        16.1317700000        3.7774500000        4.3851600000 H         0.0000000000         0.0000000000        57.1206093240       30.0776337223      -83.0433510404
atom        16.3546700000       21.2866700000        4.7431700000 O         0.0000000000         0.0000000000         0.0264827459      -45.5443786703      215.2443777366
atom        16.2582700000       20.6405700000        7.0662400000 O         0.0000000000         0.0000000000        20.2623264306       85.5796029959     -247.8159415395
atom         5.7258600000       17.3744700000        3.6658900000 O         0.0000000000         0.0000000000       -71.8132261364      -59.4054669662       -3.0172742045
atom         4.0807000000       18.6934700000        3.2311000000 O         0.0000000000         0.0000000000       141.9461330212       30.9179963525     -103.1579328767
atom         4.9018400000       16.9535700000        1.6380900000 O         0.0000000000         0.0000000000       -25.8143233543      143.0889977190      182.5100976144
atom        13.4549700000       19.0621700000       17.7049400000 O         0.0000000000         0.0000000000        48.2066806449     -166.4232620409     -244.5730540071
atom        14.0283700000       17.7592700000       15.6083400000 O         0.0000000000         0.0000000000       -90.4370421199      146.9701149084      261.0732975827
atom        11.5892700000       18.8501700000        7.4197800000 O         0.0000000000         0.0000000000       -75.5508403622     -257.7387643365      128.4331898854
atom        19.6921700000        2.7517300000        2.2841200000 O         0.0000000000         0.0000000000        25.7738817487       75.9974023537      -76.1588259510
atom         2.3960000000        9.6542700000        0.1054300000 O         0.0000000000         0.0000000000       131.6631962333       -5.9047039727       75.3704752713
atom        17.1513700000        4.0312900000        7.4411200000 O         0.0000000000         0.0000000000         1.5036393466      289.3430804638     -119.8716165342
atom        17.2729700000        6.3815100000        6.5545800000 O         0.0000000000         0.0000000000       -22.9317412731     -227.5241303900       77.7097476085
atom        12.8628700000       14.4167700000       14.9909400000 O         0.0000000000         0.0000000000      -102.4679681984       69.0224372807      109.8915233869
atom        11.2603700000       15.4357700000       16.5371400000 O         0.0000000000         0.0000000000       212.4134980304     -129.0942316927     -189.7894365826
atom         3.0475000000        6.2418400000       17.4828400000 O         0.0000000000         0.0000000000      -189.8160888666        6.4239424428      -69.2312412307