begin
comment generated by PY
lattice        19.9650000000         0.0000000000         0.0000000000
lattice         0.0000000000        19.9650000000         0.0000000000
lattice         0.0000000000         0.0000000000        16.4367122000
atom        12.0059000000        6.4534700000        0.1784400000 C         0.0000000000         0.0000000000         2.3803789474       -1.3671907100        0.9224911021
atom         7.5787600000       19.0405000000       12.6306000000 C         0.0000000000         0.0000000000        -1.2507580031       -1.8885666400       -0.6682716208
atom         0.0136500000       16.9930000000       14.7199000000 C         0.0000000000         0.0000000000         2.1138912546        6.3048691292        4.2032922073
atom         7.6292300000        1.7414700000       14.6548000000 C         0.0000000000         0.0000000000        -4.7587516272       -2.7382325315       -1.9304445952
atom        16.8617000000        9.7100000000       12.6602000000 C         0.0000000000         0.0000000000         1.7211701220        1.9953139167        2.1661233959
atom         8.6616600000        4.2676900000       12.5438000000 C         0.0000000000         0.0000000000        -1.7661151301        0.8713428066        6.2949992147
atom        10.9397000000       16.5158000000        7.6183000000 C         0.0000000000         0.0000000000       -10.5724541444        5.5505586038       -1.5091053225
atom        11.2605000000       18.6047000000        8.7250300000 C         0.0000000000         0.0000000000        -3.9087398275       -5.5445167402      -22.4935813786
atom        15.5294000000        9.0968800000       15.7768000000 C         0.0000000000         0.0000000000         7.1882034208       -9.0060894812        4.1416744230
atom        18.3378000000       16.4034000000        7.9500500000 C         0.0000000000         0.0000000000       -18.3011737501        7.4379491558       -3.7394062234
atom         6.7417100000        1.9642200000        1.5401700000 C         0.0000000000         0.0000000000        -1.2034608191       -7.9949536325       -1.6978328474
atom         1.0473100000       15.2959000000        6.0499000000 C         0.0000000000         0.0000000000        -2.3789030724       -2.5894689363       -0.7103340604
atom         0.8401700000       12.8158000000        8.9596400000 C         0.0000000000         0.0000000000        -0.8558922395        1.5205202937       -3.3355468461
atom        18.2632000000       17.5972000000        1.3024300000 C         0.0000000000         0.0000000000         6.4166666660       -1.6373450300       -6.1762835135
atom         6.5141400000        9.3812700000        7.3066600000 C         0.0000000000         0.0000000000         0.4654079800        6.3606295343        0.2593850440
atom         5.4278600000        5.5588100000        5.1475400000 C         0.0000000000         0.0000000000         7.3252061366        1.8415000615       -2.0453091848
atom        14.3915000000       19.8188000000        7.0339200000 C         0.0000000000         0.0000000000         3.5516472415       -6.1517470904       -1.9344801911
atom         7.1927600000       15.0043000000        6.0640100000 C         0.0000000000         0.0000000000         2.7563120011        4.9350264562       -0.6054085670
atom         4.7240300000       12.8772000000        5.0411800000 C         0.0000000000         0.0000000000         3.9131905133       -2.6151122657       -3.1270333710
atom         9.1197900000       15.7848000000        7.9596800000 H         0.0000000000         0.0000000000        -4.3796592785        3.8663776008        4.6005332073
atom         9.3571800000       17.6147000000        8.2289500000 H         0.0000000000         0.0000000000        -8.3059481830      -10.1970053622       -2.5489054323
atom        16.8467000000       17.2087000000        7.0010400000 H         0.0000000000         0.0000000000         5.9493446605        1.3682514952       -4.1657726956
atom        19.7349000000       16.3948000000        1.6873900000 H         0.0000000000         0.0000000000        -3.2922160764       -0.2901939362        6.3964656259
atom        13.0315000000        6.8512400000        0.6155800000 O         0.0000000000         0.0000000000       -12.6173943604       -3.4359524722       -5.8918777749
atom        10.9877000000        6.0458800000       16.1756000000 O         0.0000000000         0.0000000000        10.2371076552        5.6418783739        4.3584205137
atom        14.7016000000        1.4007300000       10.1900000000 O         0.0000000000         0.0000000000        13.1011124155        8.3759369462        6.2303143775
atom        11.3568000000        2.3538000000        9.2350700000 O         0.0000000000         0.0000000000       -10.7432175024       20.9829771206      -13.0205388608
atom         7.8912400000       19.7812000000       11.7204000000 O         0.0000000000         0.0000000000        -2.0611056602       -3.7718293540        7.8919652251
atom         0.7375600000       17.8980000000       14.9658000000 O         0.0000000000         0.0000000000       -10.3614962511      -14.4690180025       -4.9124963008
atom        19.2458000000       16.0910000000       14.5059000000 O         0.0000000000         0.0000000000         7.5469794268        8.2042511663        0.4858857466
atom         8.7533400000        1.5054800000       14.9420000000 O         0.0000000000         0.0000000000       -14.8187081526        4.7158820685       -3.9300247133
atom         6.5038800000        1.9794900000       14.3673000000 O         0.0000000000         0.0000000000        19.8949112837       -2.7437901236        5.3502316232
atom        17.7606000000       10.2859000000       13.1702000000 O         0.0000000000         0.0000000000       -13.4453372157       -8.5044072592       -8.2691666089
atom        15.9544000000        9.1342700000       12.1625000000 O         0.0000000000         0.0000000000        11.0207281372        7.0653137605        6.1771367538
atom         8.6821600000        3.5266900000       11.6215000000 O         0.0000000000         0.0000000000         1.2545860540       10.5689489411        9.8457240343
atom         8.6359100000        4.9986000000       13.4770000000 O         0.0000000000         0.0000000000         1.0789107993      -11.2574216020      -16.6341267343
atom        11.6408000000       17.6887000000        7.6331300000 O         0.0000000000         0.0000000000        18.7716550506        2.7717856289        9.0059741784
atom        10.0659000000       18.9605000000        8.6772100000 O         0.0000000000         0.0000000000        -1.7027216836       27.1536338604       16.0037897149
atom        11.4415000000       15.4581000000        7.2799500000 O         0.0000000000         0.0000000000        19.6141721722      -20.8500791824      -11.2918048790
atom        12.1987000000       18.8716000000        9.4646300000 O         0.0000000000         0.0000000000         9.6893504582       13.4038743504        7.3093174190
atom        16.3445000000        8.2425600000       15.8837000000 O         0.0000000000         0.0000000000       -13.9976834617       15.5134071614       -3.3910074641
atom        14.7137000000        9.9440700000       15.6708000000 O         0.0000000000         0.0000000000         6.1724785231       -6.0152978279       -0.7598450570
atom        18.8579000000       15.8572000000        8.8523800000 O         0.0000000000         0.0000000000        14.2049055461       -7.7459227745        5.7688036302
atom         6.5009800000        0.8043800000        1.5030300000 O         0.0000000000         0.0000000000         3.8445162013       20.3208857266        1.4288315548
atom         6.9874300000        3.1210400000        1.5662300000 O         0.0000000000         0.0000000000        -2.9270753592      -11.8994272586        0.2175993310
atom         1.6983700000       16.2303000000        6.3692200000 O         0.0000000000         0.0000000000        -8.2504414439      -12.1599422695       -4.5648354790
atom         0.3913600000       14.3613000000        5.7293900000 O         0.0000000000         0.0000000000        11.4529750491       14.8717474130        6.0733642877
atom         1.8226100000       13.4664000000        9.0733000000 O         0.0000000000         0.0000000000       -13.6318970491       -8.9354319621       -0.5050951831
atom        19.8239000000       12.1661000000        8.8297300000 O         0.0000000000         0.0000000000        13.7826438515        8.1502664234        3.8027074277
atom        12.2465000000        8.6277900000       11.4137000000 O         0.0000000000         0.0000000000         2.0590071504       -4.8734317325        9.5124068733
atom        17.6021000000       18.3171000000        0.6464600000 O         0.0000000000         0.0000000000        -9.2414454342        6.5614638470       -1.2048675125
atom         6.5211000000       10.5599000000        7.1885100000 O         0.0000000000         0.0000000000        -0.8412949126      -19.4017384039        1.1051767635
atom         6.5094900000        8.2045600000        7.4304900000 O         0.0000000000         0.0000000000        -0.0436766779       12.9027917026       -1.7512410766
atom        13.8181000000       14.5772000000       11.5693000000 O         0.0000000000         0.0000000000       -14.1164452839        5.0667021854      -16.7895548279
atom        12.0475000000       15.8818000000       11.2708000000 O         0.0000000000         0.0000000000         9.0577681693      -14.0880577493      -11.8037259844
atom         6.4673700000        5.6132900000        4.5831100000 O         0.0000000000         0.0000000000       -16.8738180703       -1.4735459574        8.4484623697
atom         4.3921000000        5.5107500000        5.7158000000 O         0.0000000000         0.0000000000         9.6374642252       -0.0203394033       -6.1344978005
atom        13.6478000000        0.7193700000        6.7229700000 O         0.0000000000         0.0000000000         8.4921621082      -10.5455886059        6.8438402574
atom        15.1624000000       18.9655000000        7.3198200000 O         0.0000000000         0.0000000000       -13.1931009415       14.4325592761       -3.3081047940
atom         6.7698300000       15.8771000000        5.3874600000 O         0.0000000000         0.0000000000         3.6731532690      -13.7486295432        8.4870887876
atom         7.6309400000       14.1453000000        6.7516300000 O         0.0000000000         0.0000000000        -6.5372963927        9.7111887972       -7.8964620319
atom         4.0277200000       13.1843000000        5.9462900000 O         0.0000000000         0.0000000000         7.7200488396       -2.9508738447      -11.3289784824
atom         5.4277900000       12.5693000000        4.1377500000 O         0.0000000000         0.0000000000       -12.0659474758        5.4082519620       14.9931611983
atom         9.1099900000       10.7947000000       12.0010000000 N         0.0000000000         0.0000000000         6.0404107646        3.3931751556      -24.0354557398
atom         9.2324400000       10.7715000000       10.8881000000 N         0.0000000000         0.0000000000        -0.8170352161       -1.9033023302        6.0658926702
atom         7.4964500000       15.5850000000       14.4624000000 N         0.0000000000         0.0000000000        20.0761902516        2.9443477096        6.1635540910
atom         8.4238400000       15.5125000000       13.8424000000 N         0.0000000000         0.0000000000        -4.2201264073       -1.1739433177       11.5737661996
atom        12.7515000000       13.1980000000        0.2294400000 N         0.0000000000         0.0000000000         2.4195588185        2.1592744131      -11.5781015826
atom        12.8962000000       13.4188000000       15.5764000000 N         0.0000000000         0.0000000000        -9.6147957065       -5.2734630589       29.1565116369
atom        15.5998000000        1.9932500000       10.6183000000 N         0.0000000000         0.0000000000       -13.7428874667       -9.6648370957       -6.2024802961
atom        10.9337000000        3.2857000000        8.6957900000 N         0.0000000000         0.0000000000         9.2506465928      -23.8108460022       13.1609314771
atom        11.9865000000        1.8900900000       12.8106000000 N         0.0000000000         0.0000000000        -3.6228582138      -13.0946554621       -6.3930987859
atom        11.7262000000        0.8913900000       12.3695000000 N         0.0000000000         0.0000000000         3.4977547408       16.9783515344        6.0373667723
atom         7.2594800000       18.2744000000       13.5291000000 N         0.0000000000         0.0000000000         4.1341336238       15.8241019248       -7.2360309974
atom         4.2183600000       19.7594000000       12.1507000000 N         0.0000000000         0.0000000000         2.6810193119      -15.9194803514      -10.5051173442
atom         4.3674000000       18.8273000000       11.5426000000 N         0.0000000000         0.0000000000        -3.2526902971       17.1772487610        9.4893232648
atom         0.1035000000       13.2179000000       12.3222000000 N         0.0000000000         0.0000000000        10.2601912637      -13.3382440307        1.9327275894
atom         0.8040000000       12.3506000000       12.4526000000 N         0.0000000000         0.0000000000       -11.7065488350       13.0766221135       -1.5139019164
atom        12.8153000000       12.2550000000       10.7182000000 N         0.0000000000         0.0000000000         1.8303618168      -19.7391372819      -21.5752642357
atom        12.9948000000       11.7860000000        9.7149600000 N         0.0000000000         0.0000000000        -1.3481196368        4.5565798028       11.4121578791
atom         5.5277700000       16.6035000000        8.7417300000 N         0.0000000000         0.0000000000       -14.5867882212      -16.1493709545       -3.2541431116
atom         4.7801600000       15.7768000000        8.5971000000 N         0.0000000000         0.0000000000        14.4601166310       16.2481623422        3.2942454046
atom         5.9517800000        1.1218300000        8.7777100000 N         0.0000000000         0.0000000000        19.5570742553       -3.3149537767       -9.6122821068
atom         6.9450700000        0.9848200000        8.2703400000 N         0.0000000000         0.0000000000       -19.3198965190        2.8677175086       10.0686272914
atom         6.7156700000       13.8504000000       12.1563000000 N         0.0000000000         0.0000000000        12.1846862375      -13.9671974172       -7.1839372195
atom         7.5814200000       13.1728000000       12.3660000000 N         0.0000000000         0.0000000000        -8.2958246024       10.4571514043      -13.8008847449
atom         3.5421000000        6.3561000000        2.2308100000 N         0.0000000000         0.0000000000         8.1079503178      -20.4298468159       -5.8719534614
atom         3.9287100000        5.3413200000        1.9404500000 N         0.0000000000         0.0000000000        -7.6024169842       20.4865527035        5.9215336396
atom         9.6562400000       16.6477000000        7.9694600000 N         0.0000000000         0.0000000000       -18.1653471223      -12.8505826219       -2.1302642437
atom        10.4602000000       13.8653000000       10.4643000000 N         0.0000000000         0.0000000000       -27.3117369775       -9.4940045560      -19.0010613822
atom         9.4722900000       13.7281000000        9.9526500000 N         0.0000000000         0.0000000000        12.6215683196        1.5320275072        3.6898952269
atom        17.8469000000       16.9798000000        6.9881800000 N         0.0000000000         0.0000000000        -1.8989669471       -1.3116378498        2.6245440298
atom        17.7767000000       11.7834000000        0.1539500000 N         0.0000000000         0.0000000000        13.7630885068       17.1451715388      -12.6041806664
atom        18.4069000000       12.5591000000       16.0749000000 N         0.0000000000         0.0000000000       -13.9327449585      -17.4631303747       11.7878833879
atom        14.3839000000       17.8322000000       11.1223000000 N         0.0000000000         0.0000000000         0.5665746041        3.6060240137       -0.6339344649
atom        13.7405000000       18.3970000000       11.8392000000 N         0.0000000000         0.0000000000         3.9169032615        5.9094729730       -0.6669802302
atom        10.6917000000       16.1024000000        0.5456500000 N         0.0000000000         0.0000000000       -15.4606676881      -16.1831546573        1.7756852575
atom         9.9165300000       15.2967000000        0.6594100000 N         0.0000000000         0.0000000000        15.5402957604       16.6030180550       -2.0609903575
atom         5.0116300000        2.1010800000        4.6229200000 N         0.0000000000         0.0000000000        17.5176455102       -1.8394476727        6.3578161475
atom         6.0654600000        2.0001400000        4.9972000000 N         0.0000000000         0.0000000000       -17.0401076820        1.7189332488       -6.0317630591
atom         7.2192400000        6.6552900000        0.1872500000 N         0.0000000000         0.0000000000         8.4636823314        6.5903817742       23.0437368726
atom         7.5973100000        6.9543900000        1.2035600000 N         0.0000000000         0.0000000000        -8.2553994617       -7.0578190824      -23.0165946076
atom        11.9084000000       10.8212000000       13.2160000000 N         0.0000000000         0.0000000000        -7.4846467655       11.3115677687       13.7446170078
atom        11.3251000000       11.3367000000       14.0216000000 N         0.0000000000         0.0000000000        13.4482197842       -8.3448513275       -8.0940217468
atom         6.7961400000       10.2649000000       15.7876000000 N         0.0000000000         0.0000000000       -17.0151561691       -6.4676765982       27.8424063084
atom         6.1567000000       10.1087000000        0.2602600000 N         0.0000000000         0.0000000000         8.4803320471        1.9498154555      -12.2220673858
atom         4.0291400000       13.6775000000       12.7689000000 N         0.0000000000         0.0000000000        -3.7656491271      -15.6463512207      -23.7373750962
atom         3.9245200000       12.8011000000       12.0813000000 N         0.0000000000         0.0000000000        -2.4766567354        5.2160653548       -2.9910914405
atom        19.6671000000        4.9778300000       10.2788000000 N         0.0000000000         0.0000000000       -16.6830150960       -0.0576052489      -16.6246027279
atom        18.8685000000        4.9765400000        9.4875100000 N         0.0000000000         0.0000000000        16.4358521425       -0.2523515769       16.7855653531
atom         3.1046000000       10.9722000000       15.1492000000 N         0.0000000000         0.0000000000         5.0637273747       10.3495970084       -4.5372320030
atom         3.5302800000       11.9319000000       14.7546000000 N         0.0000000000         0.0000000000       -17.3784751030      -28.5122921676       13.5983439518
atom         2.9095300000       14.7077000000       14.9015000000 N         0.0000000000         0.0000000000       -22.4037144230        1.2295192384       24.4813544962
atom         2.2065500000       14.5805000000       15.7668000000 N         0.0000000000         0.0000000000         7.1489082470        3.6545434068       -8.8580868840
atom         3.8299300000       15.6532000000        3.0354100000 N         0.0000000000         0.0000000000       -19.4040444587      -11.1439867663       -0.6426974731
atom         2.8492700000       15.1048000000        3.0018300000 N         0.0000000000         0.0000000000        19.2850059099       11.4714926692        0.7193968558
atom         6.0664100000       12.9596000000       14.7416000000 N         0.0000000000         0.0000000000       -12.8501675321       13.5513696155       12.5154667382
atom         5.4580400000       13.8582000000       15.0183000000 N         0.0000000000         0.0000000000        16.6430281058      -15.1217698745       11.6281660323
atom        12.3889000000        8.4666800000       12.5463000000 N         0.0000000000         0.0000000000         0.7327489131       -4.4062019692      -14.0058238351
atom        10.8696000000       18.0650000000       12.5461000000 N         0.0000000000         0.0000000000        -5.0280065858       -0.5537760000        3.1061174539
atom        10.5129000000       17.4260000000       13.3910000000 N         0.0000000000         0.0000000000         1.8471498958        7.3878616455        1.4619926229
atom        16.4060000000       15.8607000000       11.7952000000 N         0.0000000000         0.0000000000         4.9238420904       -0.9931486212        5.6240295097
atom        16.1413000000       15.3253000000       12.7411000000 N         0.0000000000         0.0000000000        14.7058267700       15.0952963654       -7.1571408627
atom        18.9015000000       16.8690000000        2.0452300000 N         0.0000000000         0.0000000000         7.1254787302       -5.3354959330        0.4166118604
atom        17.5096000000       19.0889000000       13.2663000000 N         0.0000000000         0.0000000000       -18.3810785489       -5.5602209734        6.2301068326
atom        16.4735000000       18.7972000000       13.5873000000 N         0.0000000000         0.0000000000        18.9857261178        5.3443742440       -5.1017080973
atom         5.3223400000       16.1688000000       12.7681000000 N         0.0000000000         0.0000000000        -8.8441583130        7.2687769756       13.8251905626
atom         4.9615200000       16.1590000000       13.8287000000 N         0.0000000000         0.0000000000         6.7057536959       15.4291439190      -15.5349687738
atom        11.9173000000       19.4368000000       15.5882000000 N         0.0000000000         0.0000000000        21.9765869528       -2.1286269448        1.5282916984
atom        13.0335000000       19.3197000000       15.6465000000 N         0.0000000000         0.0000000000       -21.8049472939        1.9845446408       -1.3307089230
atom        11.7077000000       13.8576000000       12.7803000000 N         0.0000000000         0.0000000000       -27.2045054293      -32.2453336798       31.3273163240
atom        11.2608000000       14.5120000000       13.5732000000 N         0.0000000000         0.0000000000       -16.3187968007        0.6361021564       16.3712595475
atom        12.6336000000       14.8262000000       11.4393000000 N         0.0000000000         0.0000000000        37.8443194344       58.4591118454      -31.6265499950
atom         6.5632200000       10.6415000000       13.1272000000 N         0.0000000000         0.0000000000       -23.0537451504       -6.6509157127      -16.8941805342
atom         5.6212200000       10.3136000000       12.6152000000 N         0.0000000000         0.0000000000         8.3400777940        0.7901466171        4.7576677815
atom         3.0877600000       19.4966000000        7.7304100000 N         0.0000000000         0.0000000000       -14.5568556299       -5.4502452199       19.2699934931
atom         2.4244200000       19.2563000000        8.6061200000 N         0.0000000000         0.0000000000        14.7395182307        5.1236617390      -19.4961944086
atom         1.9531800000        3.1709100000        3.8888100000 N         0.0000000000         0.0000000000       -14.3311159254       16.0301479213        5.5625962098
atom         1.2544900000        3.9995900000        4.1855700000 N         0.0000000000         0.0000000000        13.8152745269      -16.0355210290       -5.4182833004
atom         8.5694000000       11.7714000000       14.5340000000 N         0.0000000000         0.0000000000        16.2228187999       15.9999155428       13.7486064826
atom         8.8604700000       12.7542000000       14.9826000000 N         0.0000000000         0.0000000000         1.9462180100       -7.1386924243        1.9989805439
atom         2.2168800000        3.2393900000        7.9546400000 N         0.0000000000         0.0000000000       -22.7064071762       -9.6379254362       -7.5677339200
atom         1.2204000000        2.8230000000        7.6395400000 N         0.0000000000         0.0000000000        23.2200117016        9.6708097776        7.3500884679
atom         1.1852800000        6.8281800000        7.3418100000 N         0.0000000000         0.0000000000        17.1259621023        1.8941011715       18.6955321816
atom         1.9318000000        6.9176100000        8.1784100000 N         0.0000000000         0.0000000000       -16.5401088800       -1.8607325585      -19.1672126306
atom         3.2653800000       19.2941000000        2.9419900000 N         0.0000000000         0.0000000000        -9.5563833384       -6.7978575246       21.6894139484
atom         2.8243100000       18.9744000000        3.9259800000 N         0.0000000000         0.0000000000         9.7300523255        6.9802664594      -21.4125028878
atom        10.3445000000        9.5081300000        1.0210800000 N         0.0000000000         0.0000000000         9.5157045317        3.5298089026      -14.2422175128
atom        10.9675000000        9.7045700000        0.1081700000 N         0.0000000000         0.0000000000        -9.1144509963       -3.9409092920       16.6525982332
atom         0.0278600000        0.7695200000        2.0630500000 N         0.0000000000         0.0000000000        -9.6517387044       -5.8567796208       21.0420121235
atom        19.5413000000        0.5031600000        3.0577200000 N         0.0000000000         0.0000000000         9.4461539189        5.6907897962      -21.1765243000
atom         7.7456900000       16.1733000000       11.1660000000 N         0.0000000000         0.0000000000         5.8388615750        6.8097106463       -8.6963402003
atom         8.8418000000       16.3928000000       11.1552000000 N         0.0000000000         0.0000000000        -5.6013379305        1.2728500081       -5.9206573388
atom         6.8504200000        4.6207200000        8.2998800000 N         0.0000000000         0.0000000000       -18.3566113075        3.4128227425       17.9769655055
atom         6.0659100000        4.7644200000        9.0931600000 N         0.0000000000         0.0000000000        18.3202909444       -3.0869080174      -18.0258999884
atom        15.3396000000       14.7184000000        8.7155800000 N         0.0000000000         0.0000000000        -1.5596309832        4.1103351382       -0.5084850837
atom        15.0063000000       15.7288000000        9.0608500000 N         0.0000000000         0.0000000000         1.0582716088       -4.5341880107       -5.7181626667
atom         4.6226500000        8.9233400000        4.3914900000 N         0.0000000000         0.0000000000       -16.5644838793        8.0658878782       13.8271276486
atom         3.8202300000        9.3506100000        5.0528400000 N         0.0000000000         0.0000000000        16.6546967431       -8.3074932397      -13.7769709567
atom        19.5337000000        8.6468900000       10.4399000000 N         0.0000000000         0.0000000000       -18.8546269023        1.1196126665      -15.9371447311
atom        18.6724000000        8.6750900000        9.7170700000 N         0.0000000000         0.0000000000        18.7189155773       -0.4736867167       16.0115841801
atom        15.9788000000       15.1343000000       16.0511000000 N         0.0000000000         0.0000000000         1.7095476058       -0.0650076848       19.6416372849
atom        15.8531000000       15.0367000000        0.7255700000 N         0.0000000000         0.0000000000         1.5386458845        1.1898781563      -16.3838967278
atom         9.1095800000        7.0034500000       10.3212000000 N         0.0000000000         0.0000000000       -13.2196666929        9.6662207286       11.4670419834
atom         8.3621000000        7.5670700000       10.9420000000 N         0.0000000000         0.0000000000        12.9128461016      -10.2658641585      -11.8169166178
atom        15.9717000000       12.9258000000       11.3087000000 N         0.0000000000         0.0000000000        16.9530541133      -13.5306151222      -24.9300205183
atom        16.3819000000       12.3430000000       10.4433000000 N         0.0000000000         0.0000000000        -3.4245605614        3.5547604155        9.0947342277
atom        14.2531000000       13.9486000000        5.3780800000 N         0.0000000000         0.0000000000        -6.9980922630      -15.4731895657       10.3179348759
atom        13.8664000000       13.0580000000        5.9421500000 N         0.0000000000         0.0000000000         6.5963544561       15.8300515462       -9.8489294505
atom        13.8360000000       15.5877000000       14.1616000000 N         0.0000000000         0.0000000000        -3.3578694566       17.5858816718        5.1514958204
atom        13.2590000000       16.3912000000       13.6408000000 N         0.0000000000         0.0000000000         6.6059476441        3.0588663911       15.0926905235
atom        15.0139000000       13.2528000000       13.8114000000 N         0.0000000000         0.0000000000        -4.7042134312      -23.2563090041        5.8542199000
atom        14.1962000000       12.6813000000       13.3045000000 N         0.0000000000         0.0000000000        12.6113755574       -3.8394890018       10.7385131506
atom         1.7294000000       16.2906000000       11.7990000000 N         0.0000000000         0.0000000000         9.8720361196       -4.0172397059        7.7689141409