begin
comment generated by PY
lattice        19.9650000000         0.0000000000         0.0000000000
lattice         0.0000000000        19.9650000000         0.0000000000
lattice         0.0000000000         0.0000000000        16.4367122000
atom         5.5788800000        9.3667900000        1.5830100000 H         0.0000000000         0.0000000000        10.9164483390       -2.6383342375       -1.8994050976
atom         7.3693500000        9.1784400000        1.4130100000 H         0.0000000000         0.0000000000        -9.6881974308        4.1420664523       -6.2515070211
atom         8.0129100000        8.3719400000        4.5116100000 H         0.0000000000         0.0000000000        -8.1233317033       -0.5382331906       -5.5939585551
atom        12.9823000000        9.3022900000        9.2458200000 H         0.0000000000         0.0000000000         3.6377553278        6.1257347923       -2.0758874715
atom        14.3637000000       17.5434000000        8.7521100000 H         0.0000000000         0.0000000000       -20.1204434433       -9.9530708853       -6.9639395914
atom        15.7053000000       18.4896000000        8.6114300000 H         0.0000000000         0.0000000000        16.8112548035       21.5978866333      -23.4140892736
atom        15.8087000000       17.1838000000        9.5553800000 H         0.0000000000         0.0000000000        14.1217030889      -27.0154781172        7.3205709664
atom        14.9572000000       18.4731000000       10.0496000000 H         0.0000000000         0.0000000000       -14.6335550126       15.2416847242       22.5213462785
atom        17.2550000000        2.8698600000        8.6249500000 H         0.0000000000         0.0000000000        -1.4213599373        1.4352654477      -11.6011621306
atom        17.3115000000        4.5802800000        8.6857400000 H         0.0000000000         0.0000000000        -6.8273289050       -2.1593205342       -7.7794758719
atom        18.5135000000        4.2701700000       13.4285000000 H         0.0000000000         0.0000000000         3.3105030910        5.5127623656       12.0643101769
atom        14.9241000000        4.8672600000       10.4335000000 H         0.0000000000         0.0000000000        -2.6777216535       -1.1462014784        4.0270634993
atom        16.1867000000        1.9829800000       11.2556000000 H         0.0000000000         0.0000000000         2.7419222192       -3.9148739333        7.5740525102
atom        15.7996000000        3.7486700000        8.3966000000 H         0.0000000000         0.0000000000         5.0408051900        5.3560890024       -8.6348146582
atom        16.0824000000        5.0940300000       11.7024000000 H         0.0000000000         0.0000000000        -4.4032732796       -4.5280539049        1.2534330266
atom        17.8151000000       16.7893000000        0.1198600000 H         0.0000000000         0.0000000000         1.5271386710        1.8141502516       -5.5087959513
atom        13.9892000000        4.9770600000        6.6801600000 H         0.0000000000         0.0000000000         1.3836790018       -3.7787475184       -1.2243075545
atom         0.2101800000       19.7270000000       10.8707000000 H         0.0000000000         0.0000000000         6.0163355525        1.1085897246        3.9939254919
atom         2.0292900000        0.7930400000        5.8585700000 H         0.0000000000         0.0000000000        -9.2071543993       11.9262697365       -6.7324347499
atom         3.1367400000       19.7648000000        5.9287700000 H         0.0000000000         0.0000000000        21.9475306623      -11.4922702229       -9.8253154493
atom        16.7995000000       11.9384000000        1.4903300000 H         0.0000000000         0.0000000000        10.6279378229       17.3835484236      -20.2617123604
atom        16.9205000000       11.3494000000        2.8507000000 H         0.0000000000         0.0000000000        14.5712684724       -2.0386908076       24.8722538455
atom        11.7672000000        6.4324700000        9.4626300000 C         0.0000000000         0.0000000000        -1.6646256583       -0.5347049268       -4.7240685630
atom        18.3516000000       12.0943000000        6.2683300000 C         0.0000000000         0.0000000000        -1.0835690300       -1.1839054744        3.9334837955
atom         6.6081600000        8.7455700000        3.2325700000 C         0.0000000000         0.0000000000         0.1459502084       -0.7209649730        5.9325565816
atom         2.4831100000        8.7701800000        2.1752500000 C         0.0000000000         0.0000000000         0.4482739928       -1.8619317070        9.8036615947
atom        11.2096000000        9.7926800000        9.8358200000 C         0.0000000000         0.0000000000        12.0833120685       -7.3782915181       -5.8122266421
atom        18.5066000000        4.4923000000       11.5534000000 C         0.0000000000         0.0000000000       -16.9406705990        0.9984294867        9.3847436795
atom        16.5429000000        3.6468900000       10.3143000000 C         0.0000000000         0.0000000000         9.6938011440      -14.4662276762       44.2706484700
atom        18.1932000000       14.9139000000       16.2825000000 C         0.0000000000         0.0000000000        -7.3346379007       15.6737240912        7.8371733630
atom         4.8939100000        3.5593700000        8.0804000000 C         0.0000000000         0.0000000000        -1.7801359432        5.8502073646        2.0869565345
atom        16.0140000000       14.7152000000        4.8780500000 C         0.0000000000         0.0000000000         0.5387866438       -1.9369476697       -2.6987067522
atom         7.4448500000        4.8620400000        6.2137200000 C         0.0000000000         0.0000000000        -0.5746919170       -2.6049195034       -2.5142915498
atom         1.0192000000       14.7009000000       14.3512000000 C         0.0000000000         0.0000000000        -2.7977979270       -2.6235754868       -3.9451754934
atom        19.2150000000       18.1386000000        3.2427600000 C         0.0000000000         0.0000000000         1.3705114289       -0.6950449171       -2.1196333311
atom         7.7487200000        7.8830900000        7.9000100000 C         0.0000000000         0.0000000000         1.7282035891        1.0515148683       -2.6312777098
atom        19.0852000000       19.2901000000        7.5821900000 C         0.0000000000         0.0000000000         4.7420327299      -13.5851302577       -0.4654310405
atom         0.3348300000       10.7159000000       16.2135000000 C         0.0000000000         0.0000000000        -1.7607650829        0.1523841013       -2.3630835364
atom        14.4238000000        6.7221300000        7.3419900000 C         0.0000000000         0.0000000000       -10.1065388323       11.0972660960       -8.4844598851
atom        18.3391000000       19.1294000000       11.0351000000 C         0.0000000000         0.0000000000        11.2720650499        2.9855107878       -2.4896859450
atom         2.1247900000       11.9468000000        6.8431600000 C         0.0000000000         0.0000000000         1.5127488890        3.8952724675        4.5844138843
atom         7.3840700000       10.4132000000       14.1641000000 C         0.0000000000         0.0000000000         3.2705161007       -2.3764355937       -1.1028476481
atom         5.7714100000        1.0243400000        0.9829700000 C         0.0000000000         0.0000000000        -2.0957887244        0.3066591675        0.9778364174
atom         6.1095500000        6.3562400000       13.0141000000 C         0.0000000000         0.0000000000         1.3459058242        0.2572173525       -0.6039557524
atom        15.2453000000       19.3955000000        0.0049500000 C         0.0000000000         0.0000000000         0.9806498042       -1.0966904818       -0.6681101970
atom         7.5203600000       14.8267000000       13.8280000000 C         0.0000000000         0.0000000000         1.8320682974        2.6494724822       -0.1589332969
atom        15.3347000000       18.1605000000        5.8625700000 C         0.0000000000         0.0000000000        -2.5231698607        1.1348095677        4.0636144679
atom         4.0798100000       12.7120000000       11.9543000000 C         0.0000000000         0.0000000000         1.4541059154        1.4704097229       -4.8379415491
atom         6.4546100000        0.9322500000        4.6532900000 C         0.0000000000         0.0000000000         1.2171587846        2.1048745803        3.4065272129
atom        12.5200000000        6.4446100000       10.3781000000 O         0.0000000000         0.0000000000        -9.0265672478       -0.4510643191      -11.2840565349
atom        11.0376000000        6.4227700000        8.5305300000 O         0.0000000000         0.0000000000        10.8234451489        0.4645547397       15.4813068786
atom        18.1317000000       11.8169000000        5.1390200000 O         0.0000000000         0.0000000000         2.3608697238        4.8986138509       12.7900486834
atom        18.5597000000       12.3632000000        7.4021600000 O         0.0000000000         0.0000000000        -1.4571960289       -3.5977683376      -18.0663943107
atom         5.6874900000        8.6198000000        4.0220400000 O         0.0000000000         0.0000000000       -13.7443633418        0.1575957851       11.6633333681
atom         7.9134900000        8.4982700000        3.5422800000 O         0.0000000000         0.0000000000        18.7355883535       -1.2104712257        5.6206165486
atom         1.8611100000        8.6282500000        3.1709500000 O         0.0000000000         0.0000000000         8.2741938084        2.8670948738      -17.6746878422
atom         3.1178500000        8.9056400000        1.1844300000 O         0.0000000000         0.0000000000        -7.2549175862       -0.0913197701        9.4654325370
atom        10.1088000000        9.5812000000       10.1927000000 O         0.0000000000         0.0000000000       -11.5184900660        4.0627381671        4.2382981191
atom        19.4655000000        5.1245400000       11.2050000000 O         0.0000000000         0.0000000000        17.0077076121        1.1417046715      -13.3732038215
atom        15.8200000000        2.4886000000       10.5063000000 O         0.0000000000         0.0000000000        -1.7242832960      -23.8473047286      -10.0877444857
atom        17.9138000000        3.4677900000       10.8107000000 O         0.0000000000         0.0000000000       -19.8407881775        5.2045581414      -16.2515522427
atom        17.8783000000        4.6043400000       12.7595000000 O         0.0000000000         0.0000000000        -2.2893359039       -6.5710339744        5.0320883028
atom        18.2814000000       13.7855000000        0.1719200000 O         0.0000000000         0.0000000000         4.2718742770      -14.6532948417       -3.8124620395
atom         5.0185000000        2.5139100000        7.5405500000 O         0.0000000000         0.0000000000        -0.2843134964       11.1862336902        5.4539349076
atom         4.7676200000        4.6101900000        8.6115100000 O         0.0000000000         0.0000000000         2.6345523076      -17.1261696472       -8.1624193322
atom        16.1867000000       14.7832000000        3.7096000000 O         0.0000000000         0.0000000000        -2.8692164442        0.1033343156       18.1773616678
atom        15.8435000000       14.6377000000        6.0494700000 O         0.0000000000         0.0000000000         2.8278227605        2.2639001194      -16.4604116261
atom         6.6427500000        5.2569500000        5.4371300000 O         0.0000000000         0.0000000000        12.3383847900       -5.5684305285       12.7816085228
atom         8.2441900000        4.4568600000        6.9893700000 O         0.0000000000         0.0000000000       -11.4947146410        7.5504385090      -10.3647708490
atom         1.6936800000       15.0017000000       15.2744000000 O         0.0000000000         0.0000000000        -7.7796603563       -3.0196865200      -10.5690642438
atom         0.3407700000       14.3975000000       13.4278000000 O         0.0000000000         0.0000000000        11.1405507446        5.2060109559       15.0740345401
atom        19.8170000000       18.7951000000        4.0199000000 O         0.0000000000         0.0000000000        -8.7531613906       -8.2702965758       -8.7999512425
atom        18.6231000000       17.4840000000        2.4534100000 O         0.0000000000         0.0000000000         6.5886752936        8.5308807683       10.7888543269
atom         8.2221400000        8.3056500000        6.8971700000 O         0.0000000000         0.0000000000        -6.9823419087       -6.9070953406       14.7394951701
atom         7.2809800000        7.4525800000        8.8947600000 O         0.0000000000         0.0000000000         5.7881514299        5.8876807552      -12.7234728813
atom        19.4212000000       18.1598000000        7.7042000000 O         0.0000000000         0.0000000000        -6.7455331412       20.1152548200       -1.5118034066
atom        18.7433000000        0.4534300000        7.4818000000 O         0.0000000000         0.0000000000         2.2671055356       -5.3858140488        1.2202258375
atom         1.0551900000       11.3006000000       15.4799000000 O         0.0000000000         0.0000000000        -8.6286344313       -6.3411203107        9.9817351465
atom        19.5708000000       10.1259000000        0.4993000000 O         0.0000000000         0.0000000000        11.0076297459        7.5074767081       -7.8352823981
atom        14.3198000000        7.8932500000        7.4148800000 O         0.0000000000         0.0000000000         4.3974850821        8.2809966700        8.2340915154
atom        17.2568000000       18.8470000000       10.6527000000 O         0.0000000000         0.0000000000       -13.3222861315       -3.6750211734        2.2513321208
atom         1.8211400000       11.1687000000        6.0055200000 O         0.0000000000         0.0000000000         2.1686831167        8.7782743274        8.0793782988
atom         2.4261800000       12.7212000000        7.6859700000 O         0.0000000000         0.0000000000        -4.1948520467      -11.5911769133      -12.6692575329
atom         8.3289900000       10.2564000000       13.4688000000 O         0.0000000000         0.0000000000       -13.7786313161        3.0947947249        9.7657500538
atom         6.4452800000       10.5574000000       14.8700000000 O         0.0000000000         0.0000000000        10.8043279546       -0.9487570663       -8.4539969012
atom         6.9422000000        1.1161100000        1.1266400000 O         0.0000000000         0.0000000000       -13.8327083012       -1.5367087984       -1.2877240615
atom         4.5981700000        0.9409500000        0.8556700000 O         0.0000000000         0.0000000000        15.8065528477        0.5334365966        0.2394837911
atom         5.7933400000        5.7906900000       12.0249000000 O         0.0000000000         0.0000000000         3.5585423454        6.8733577588       13.2537271223
atom         6.4318700000        6.9226000000       14.0029000000 O         0.0000000000         0.0000000000        -4.7570220861       -6.7567866886      -12.8875717409
atom        14.5445000000        0.3812600000        0.0173400000 O         0.0000000000         0.0000000000         8.0555567527      -10.8845786617        0.2333496853
atom        15.9473000000       18.4427000000       16.4224000000 O         0.0000000000         0.0000000000        -8.4759505429       11.9499990404        1.0691331269
atom         2.3854500000        0.1071900000        6.4290400000 O         0.0000000000         0.0000000000       -13.5888660665        0.1609626251       16.7851272026
atom        16.3715000000       11.3207000000        2.0746500000 O         0.0000000000         0.0000000000       -24.0071373869      -13.7213719754       -4.4669203921
atom         7.8287100000       15.8057000000       14.4149000000 O         0.0000000000         0.0000000000        -4.9236345455      -12.8470543581       -7.2071361308
atom         7.2268600000       13.8465000000       13.2342000000 O         0.0000000000         0.0000000000         1.8468731692        9.8448477335        7.4029893650
atom        14.3041000000       18.0667000000        6.4431100000 O         0.0000000000         0.0000000000         6.5608642727       -0.1700023599       -6.9652540427
atom        16.3728000000       18.2529000000        5.3147900000 O         0.0000000000         0.0000000000        -4.0130196256       -1.3903204396       -0.8553157258
atom         3.6689200000       12.5579000000       13.0523000000 O         0.0000000000         0.0000000000         4.4627233724        1.8730930123      -11.6762933960
atom         4.4879300000       12.8693000000       10.8535000000 O         0.0000000000         0.0000000000        -5.8222349199       -2.9440248620       16.7497523220
atom         5.4240000000        0.3655500000        4.5163200000 O         0.0000000000         0.0000000000        12.4968107549        6.4923975057        0.1235814768
atom         7.4788300000        1.5048800000        4.8012000000 O         0.0000000000         0.0000000000       -14.4546051600       -7.9296922816       -2.8217578364
atom        15.2221000000        1.6218100000        6.8889800000 N         0.0000000000         0.0000000000        -1.0358567562       -0.6356178849       30.7130525066
atom        15.3104000000        1.7236200000        5.7734500000 N         0.0000000000         0.0000000000         1.3624402371        3.1643222771      -29.9206228952
atom         6.2780900000       19.1177000000       13.3146000000 N         0.0000000000         0.0000000000         3.8766856658        4.1608146778       16.6372860293
atom         6.5063500000       19.4050000000       14.3765000000 N         0.0000000000         0.0000000000        -4.1863888256       -3.8141915806      -16.1548132438
atom         6.5059000000        9.1393400000        1.9497200000 N         0.0000000000         0.0000000000        -0.4360519024        1.6642105684       -9.1384800873
atom         2.8969300000        6.3389000000       14.6797000000 N         0.0000000000         0.0000000000        -6.1020516095        1.3366354839      -20.7319399949
atom         2.5833100000        6.4057100000       13.6020000000 N         0.0000000000         0.0000000000         6.3710759626       -1.2155676068       20.8370499727
atom        12.3396000000       10.0715000000        9.4491300000 N         0.0000000000         0.0000000000        -3.1213604762       -3.5655296914        2.1667460307
atom        12.6001000000       17.3789000000        1.2248400000 N         0.0000000000         0.0000000000         4.1240331037        4.2964107001       10.1674878607
atom        12.9957000000       17.7940000000        2.1914800000 N         0.0000000000         0.0000000000        -3.5579427711       -4.3131526580       -9.9093250257
atom        15.1726000000       17.9033000000        9.2432800000 N         0.0000000000         0.0000000000         1.9890183871       -0.1970293222        1.5224343192
atom        15.8812000000        4.7669100000       10.7590000000 N         0.0000000000         0.0000000000         9.2749293499       42.7746645994        3.1554439661
atom        16.7316000000        3.7364500000        8.8647500000 N         0.0000000000         0.0000000000        10.7072199869       -8.6981619836      -18.4884715210
atom        18.1022000000       16.0688000000       15.8877000000 N         0.0000000000         0.0000000000         1.2228547400       -4.4947083525        2.7673118825
atom         5.0438500000        2.1055000000       11.3365000000 N         0.0000000000         0.0000000000        20.8058259907        1.3172415630       -4.3043435286
atom         6.1447500000        2.1707700000       11.1156000000 N         0.0000000000         0.0000000000       -21.1278896043       -1.0978665698        4.2950731883
atom        13.2767000000       13.3004000000        1.6403600000 N         0.0000000000         0.0000000000        11.1614436011       12.3115192516      -14.4936466678
atom        13.8501000000       13.9213000000        0.8998300000 N         0.0000000000         0.0000000000       -10.7913909872      -12.1578206991       14.6152449374
atom        11.2444000000        7.8973100000        2.0588900000 N         0.0000000000         0.0000000000        -8.0878645804       -5.9728202984      -18.0383757449
atom        10.8118000000        7.5912200000        1.0680700000 N         0.0000000000         0.0000000000         7.6188822155        6.1018440645       18.2114682183
atom         4.5109600000       16.1711000000       12.6250000000 N         0.0000000000         0.0000000000       -16.3787081045        0.0029056290       -5.7118440766
atom         3.4496100000       16.2004000000       12.2560000000 N         0.0000000000         0.0000000000        16.8571222335       -0.4431314906        6.5160115068
atom         5.1534100000       13.8367000000       16.2459000000 N         0.0000000000         0.0000000000        16.0637932608       -1.0677725546       11.3314690216
atom         6.0674400000       13.7722000000        0.4596700000 N         0.0000000000         0.0000000000       -16.4905056412        1.1587925376      -11.2630253151
atom        17.8009000000        1.1209500000        1.8197700000 N         0.0000000000         0.0000000000        -7.4797579294       -2.3104363053        8.2541772527
atom        17.0669000000        0.8955000000        2.6411200000 N         0.0000000000         0.0000000000         7.3060428212        1.8342821100       -8.3927019646
atom        10.6849000000        0.5333200000        1.3219400000 N         0.0000000000         0.0000000000        -4.2380675137        5.4240945585       20.4661671791
atom        10.4699000000        0.8151900000        2.3890800000 N         0.0000000000         0.0000000000         4.0689875756       -5.4000654674      -20.6012097482
atom        14.5719000000        5.5059500000        7.3326800000 N         0.0000000000         0.0000000000         3.4131455902      -18.9729966953        3.6880042619
atom        19.4339000000       19.3976000000       11.4887000000 N         0.0000000000         0.0000000000        -0.1914486696        1.1838132322       -1.6472380051
atom         2.8059700000       18.6464000000       14.9272000000 N         0.0000000000         0.0000000000         0.6062156861       17.2121163096      -13.4216540329
atom         2.8340700000       19.5266000000       14.2282000000 N         0.0000000000         0.0000000000        -0.7391136243      -17.1842822282       13.5591410201
atom         9.3263000000       17.1890000000        2.3760100000 N         0.0000000000         0.0000000000        -1.6502819974        5.9630887472       14.5806310549
atom         9.2043500000       17.6292000000        3.4028700000 N         0.0000000000         0.0000000000         1.5853665547       -6.0588592030      -14.6309952917
atom         1.3458200000        2.9656500000       13.7407000000 N         0.0000000000         0.0000000000        -2.4841283530        1.0166242591        1.8467348059
atom         0.4141100000        3.4307400000       14.1657000000 N         0.0000000000         0.0000000000         0.6859590612       -0.9322687745       -2.5897226023
atom         9.2311800000       12.6411000000       16.1617000000 N         0.0000000000         0.0000000000        13.1777426166        5.1225548327      -11.8212750614
atom        10.0258000000       13.0101000000       15.4581000000 N         0.0000000000         0.0000000000       -12.9866629157       -5.4614295857       11.6384740973
atom         1.3308600000        3.1964000000        8.2930500000 N         0.0000000000         0.0000000000         4.4955154717       -9.9548004264       13.4514252004
atom         1.6396600000        2.5557600000        9.1643000000 N         0.0000000000         0.0000000000        -5.0448638464        9.3542576351      -12.9964175275
atom        17.7799000000        0.8415800000       14.2485000000 N         0.0000000000         0.0000000000         6.0820119933       -0.1870671655        4.6630272924
atom        16.8188000000        0.9370600000       13.6740000000 N         0.0000000000         0.0000000000        -6.1977298232        1.2772084516       -6.3294055523
atom         6.3910100000        3.2269000000       14.6593000000 N         0.0000000000         0.0000000000       -14.6153602402        3.6529752895        3.3457857294
atom         5.3322100000        3.5072000000       14.9123000000 N         0.0000000000         0.0000000000        14.3073405004       -3.7745043775       -3.4863167090
atom         5.3007300000        9.4240100000       11.5702000000 N         0.0000000000         0.0000000000       -16.4648392513       -3.9903049858        5.0036546471
atom         4.2461000000        9.1681100000       11.8617000000 N         0.0000000000         0.0000000000        16.5084236870        4.0001749004       -4.8283253006
atom         4.8262800000       12.8442000000        4.7655300000 N         0.0000000000         0.0000000000         1.1045080076      -13.8840180205      -15.7370022349
atom         4.9132800000       12.1295000000        3.9029400000 N         0.0000000000         0.0000000000        -1.0478251806       13.3212945279       15.3590859741
atom        13.5174000000       10.0129000000       16.4344000000 N         0.0000000000         0.0000000000       -20.2455699768        9.3161154887       -5.9227097276
atom        12.5317000000       10.4825000000       16.1656000000 N         0.0000000000         0.0000000000        20.2527418072       -9.2846839617        5.9386676268
atom        11.1948000000        7.8859200000       13.6680000000 N         0.0000000000         0.0000000000        12.3446341985       16.3871482650       -7.3873773740
atom        11.8419000000        8.7236100000       13.2891000000 N         0.0000000000         0.0000000000       -12.8220336635      -16.2396299394        6.9117305107
atom         5.7653800000       17.5759000000        1.9012100000 N         0.0000000000         0.0000000000         5.1580911371       -0.7768176203      -15.2897659668
atom         6.1257300000       17.5097000000        0.8391800000 N         0.0000000000         0.0000000000        -5.4698697463        0.6485087312       15.1150823156
atom         5.4313900000       10.6124000000        7.5145100000 N         0.0000000000         0.0000000000       -12.7697323406      -17.6859413896       -2.0299739204
atom         4.7635100000        9.7116500000        7.4372200000 N         0.0000000000         0.0000000000        12.8232328120       17.5082598672        1.8869062805
atom         1.0112000000       12.7044000000        2.6154800000 N         0.0000000000         0.0000000000        10.8757234113       -4.9577180355       -2.2800886241
atom         1.9914800000       12.2113000000        2.3820800000 N         0.0000000000         0.0000000000       -11.5130938978        4.5335423153        2.2002991280
atom         0.4839200000       14.6861000000        5.2616800000 N         0.0000000000         0.0000000000        -6.4685759596        3.6096675803        1.0888037744
atom        19.4934000000       15.2741000000        5.3116100000 N         0.0000000000         0.0000000000         6.2515992633       -3.7564018473       -1.2613889157
atom        11.5277000000       14.9209000000        4.1977400000 N         0.0000000000         0.0000000000        13.9813796542        5.8372242761        4.4874904010
atom        12.5334000000       15.3118000000        4.5115600000 N         0.0000000000         0.0000000000       -13.3205335299       -5.7050181543       -4.5375087296
atom         2.8447300000       15.6890000000        2.6282200000 N         0.0000000000         0.0000000000       -10.4602184572       13.6522825736       -7.5286693517
atom         2.2141800000       16.5184000000        2.2069600000 N         0.0000000000         0.0000000000         9.8756105045      -13.5516002209        7.5037408993
energy    -28026.2085946938
charge 0
end
begin
comment generated by PY
lattice        22.1199193780         0.0000000000         0.0000000000
lattice         0.0000000000        22.1199193780         0.0000000000
lattice         0.0000000000         0.0000000000        18.2108063460
atom         4.9767400000        8.1136200000        3.5507900000 H         0.0000000000         0.0000000000       -11.6859327051       12.1938412751       24.1329557368
atom         4.4305900000        8.2707600000        1.8928800000 H         0.0000000000         0.0000000000        53.1621500881      -31.5262827322       28.3267008772
atom         7.3409000000        7.2740700000        0.8601100000 H         0.0000000000         0.0000000000       -27.7943711869      -27.1151919268        0.6599467630
atom        14.3898600000        9.0185200000       11.5520500000 H         0.0000000000         0.0000000000        -5.6937415464        4.5034944213       12.5985077716
atom        15.7028600000       21.6766600000       12.6478500000 H         0.0000000000         0.0000000000       -86.4729733283       -3.5907579310       16.5265723383
atom        16.9130600000       21.8649600000       11.2860500000 H         0.0000000000         0.0000000000       -10.8034977749      -21.4686553222       50.0286828242
atom        17.1926600000       20.9762600000       13.1199500000 H         0.0000000000         0.0000000000       -15.0658480456        4.5697934968      -19.2296375341