begin
comment generated by PY
lattice        19.9650000000         0.0000000000         0.0000000000
lattice         0.0000000000        19.9650000000         0.0000000000
lattice         0.0000000000         0.0000000000        16.4367122000
atom        17.5320000000       18.7997000000        9.0441400000 C         0.0000000000         0.0000000000        -0.1177240976      -12.7677721940       -4.2426335022
atom        13.4379000000        6.6377600000        4.4665500000 C         0.0000000000         0.0000000000        -6.2758820204      -26.8517021053       -0.9618554576
atom         2.4710600000        5.5429500000        7.4717400000 C         0.0000000000         0.0000000000        -6.8579302522        1.3749621147        2.3003819064
atom         0.9487000000        1.1796100000        7.5746900000 C         0.0000000000         0.0000000000        -2.3845067855       -5.8114887045       -6.3386297715
atom        14.8585000000       10.5378000000        7.0138900000 C         0.0000000000         0.0000000000         0.4576135148      -12.2895425493       19.8594211003
atom         4.6149500000        2.5623300000        6.3249900000 C         0.0000000000         0.0000000000         4.8802345942       -2.3090526724        8.2613721437
atom         8.9607200000       15.1730000000        4.1553500000 C         0.0000000000         0.0000000000        -2.9827665826        0.3929978592       -3.0412250718
atom         8.6366000000        3.6566200000       15.2312000000 C         0.0000000000         0.0000000000         8.0055384240       -8.1588218867       -1.4022196824
atom         7.3377600000        4.5299900000        5.7865700000 C         0.0000000000         0.0000000000         7.7367907975       -3.5942861948       -3.0471516327
atom        10.5825000000        8.7515100000        2.2282200000 C         0.0000000000         0.0000000000       -35.1464659225        5.6004616297      -42.2444103584
atom        11.8679000000       19.6979000000        6.3894900000 C         0.0000000000         0.0000000000         2.9015934536        6.7653421519       -0.7329103369
atom         5.3994400000        5.9504400000        2.0471100000 C         0.0000000000         0.0000000000         8.7274719401        4.4236818646        2.4873107086
atom         0.4653600000       10.2921000000        2.1990600000 C         0.0000000000         0.0000000000         8.7991210628        3.5566513804        2.1773077617
atom        12.9601000000       16.8343000000        4.8830400000 C         0.0000000000         0.0000000000         1.2388126392        7.0288780946       -0.9173255394
atom        14.3017000000       19.9334000000       10.2065000000 H         0.0000000000         0.0000000000       -21.4894328760       -7.5708701546       -0.2483851626
atom        13.7218000000       10.1503000000        2.5835500000 H         0.0000000000         0.0000000000        11.9116954702       -4.4591951085       -3.2164621762
atom        14.7637000000       11.2417000000        1.9779700000 H         0.0000000000         0.0000000000         3.2834069471       -3.0389881987      -10.3473601352
atom        14.9131000000       10.7821000000        3.5116400000 H         0.0000000000         0.0000000000        -1.0279931093       -5.0723750802       -5.0488302607
atom        18.5663000000        0.0503500000        8.0152700000 H         0.0000000000         0.0000000000       -11.9789861493        0.8840722291       -6.3764490703
atom        16.8613000000       17.1929000000        8.2262300000 H         0.0000000000         0.0000000000        10.9007902269        1.4043873739        4.1291064243
atom        15.1934000000        7.0314800000        3.7516900000 H         0.0000000000         0.0000000000       -11.3279638183        4.0270173783       -2.8517826699
atom        14.4292000000        7.5502100000        5.8393600000 H         0.0000000000         0.0000000000        -7.9958760544        2.5100484089       -2.4352630517
atom        14.4447000000       19.5167000000        3.3658400000 H         0.0000000000         0.0000000000        -2.7574419680      -22.9570292120       -2.8464787439
atom        13.8931000000        0.9272400000        3.5335800000 H         0.0000000000         0.0000000000       -11.8802408827       13.0477041863        2.4045002807
atom         1.4040500000        6.0914200000       10.9187000000 H         0.0000000000         0.0000000000        14.1084432738        7.6589383874        7.4870450625
atom         0.4660300000        5.0337500000       10.4401000000 H         0.0000000000         0.0000000000        -6.4866554292      -21.4940680462       -2.6779522590
atom        11.2440000000       10.4165000000        3.0076200000 H         0.0000000000         0.0000000000         1.6940739781      -21.2118530596      -10.8131832051
atom         4.7013600000        4.6277100000        3.2674200000 H         0.0000000000         0.0000000000         4.1571480507       -7.0272407957       -5.2956934271
atom         7.2934900000        5.8664500000        1.7655900000 H         0.0000000000         0.0000000000         2.1760163710        9.2437976101        1.0086453095
atom        11.7041000000        3.9818800000        4.8892900000 H         0.0000000000         0.0000000000         4.1273768832       -2.3306142848       -0.5955155919
atom        10.5381000000        3.0632800000        5.1914800000 H         0.0000000000         0.0000000000       -27.3447596823       -2.9250229704        3.0005462651
atom        18.0768000000       11.4483000000       14.7645000000 H         0.0000000000         0.0000000000         9.4926439837       12.3700238619      -15.8595459871
atom        17.9943000000       10.4852000000       15.8916000000 H         0.0000000000         0.0000000000        11.1842735437      -16.5901502692       16.5339978348
atom         1.7892000000       10.3473000000       12.5059000000 H         0.0000000000         0.0000000000       -79.9249307202      -68.9132653784      -30.2157748493
atom         8.6392600000        2.0714600000       12.1133000000 H         0.0000000000         0.0000000000        16.3128010583        4.5254941841       -2.8321581436
atom         7.1526300000        1.9873400000       12.1202000000 H         0.0000000000         0.0000000000       -17.6624657518        4.4485641959       -3.2191602603
atom        14.7068000000       10.4512000000        2.5823000000 O         0.0000000000         0.0000000000       -19.4869471288        9.5132139925       13.7881553224
atom        17.7787000000        0.0814000000        8.6073500000 O         0.0000000000         0.0000000000        23.5146793841       22.8465461265        6.1143428816
atom        17.4439000000       18.4665000000       10.2002000000 O         0.0000000000         0.0000000000       -10.0309924770        1.7948946940       13.7603212410
atom        17.3948000000       17.9865000000        7.9806300000 O         0.0000000000         0.0000000000       -12.3896945093      -15.8568248424      -14.5818763245
atom         0.4475500000        2.6437700000       11.6490000000 O         0.0000000000         0.0000000000        -1.0919861300        2.6099467029        0.8839108053
atom        14.3051000000        6.7281000000        3.4510100000 O         0.0000000000         0.0000000000        15.3974126049      -20.3332231198      -26.2045308858
atom        13.6036000000        7.6717800000        5.3192300000 O         0.0000000000         0.0000000000        -2.1866011625       19.8088262580       39.2517969218
atom        12.5872000000        5.7765900000        4.5708500000 O         0.0000000000         0.0000000000         6.1024205782       20.5568412539       -7.1977274272
atom         3.4352200000        5.4283600000        8.1477600000 O         0.0000000000         0.0000000000        -9.7722761889        0.2263392787       -9.7755046656
atom         1.4929600000        5.6526100000        6.8139000000 O         0.0000000000         0.0000000000        15.8344791714       -1.8162026403        7.5792180729
atom         0.4960800000        0.1826600000        7.1138100000 O         0.0000000000         0.0000000000         5.6103776653       16.5982445216       10.3945420164
atom         1.3946800000        2.1758400000        8.0194500000 O         0.0000000000         0.0000000000        -2.5806598069       -8.9842742028       -3.0450761833
atom        14.7607000000       11.1718000000        6.0204000000 O         0.0000000000         0.0000000000         0.3510046013       -1.7188179461       -3.6024957499
atom        14.9623000000        9.8892100000        7.9964000000 O         0.0000000000         0.0000000000        -1.9237339757       13.4198322496      -21.4050773914
atom         5.1368500000        2.1116200000        7.2877900000 O         0.0000000000         0.0000000000       -10.6808617806        7.9887272845      -18.7467957798
atom         4.0959500000        3.0222800000        5.3638800000 O         0.0000000000         0.0000000000         6.4343079852       -4.2797379239       10.4829330970
atom         9.4836400000       15.9979000000        4.8244300000 O         0.0000000000         0.0000000000        -4.8794044144      -12.0975634871       -8.1440400754
atom         8.4304900000       14.3569000000        3.4807800000 O         0.0000000000         0.0000000000         9.1444758298       11.2614110768       11.0186988089
atom         7.5582800000        4.1251900000       15.1105000000 O         0.0000000000         0.0000000000         8.2627788371       -1.8856840715        2.3417064084
atom         9.7118300000        3.1750600000       15.3455000000 O         0.0000000000         0.0000000000       -16.5389789132        9.2289696777       -1.2295653595
atom         7.9135300000        3.6197100000        5.2895300000 O         0.0000000000         0.0000000000       -10.1892108969       14.3113069146        8.4426049905
atom         6.7738200000        5.4419900000        6.2828300000 O         0.0000000000         0.0000000000         3.8671616594      -10.4670213188       -5.7674661184
atom        14.7265000000        0.4633100000        3.4165600000 O         0.0000000000         0.0000000000        13.4720182697       10.0959309802        0.7527885293
atom         0.5525100000        5.9845000000       10.4867000000 O         0.0000000000         0.0000000000        -6.4916595681       13.6597541911       -5.4407673347
atom         9.8263900000        7.8495800000        2.3657600000 O         0.0000000000         0.0000000000        35.9673983711       13.5477721700       23.4855308514
atom        11.6082000000        9.5217200000        2.6968700000 O         0.0000000000         0.0000000000         0.3638262660        4.4363190449       29.0102847019
atom        12.9746000000        0.0012000000        6.7187200000 O         0.0000000000         0.0000000000       -18.6943330331       -7.4627392449       -4.7508418593
atom        10.7649000000       19.4424000000        6.0413900000 O         0.0000000000         0.0000000000        16.0904743149        1.7094553636        6.2760203837
atom         4.4427800000        5.0969800000        2.4500600000 O         0.0000000000         0.0000000000       -20.1980652479        5.4919156302        9.3597229849
atom         6.6214500000        5.4186200000        2.3081100000 O         0.0000000000         0.0000000000         9.1747543293      -12.6777207540        2.5927204735
atom         5.2027000000        7.0253600000        1.5335700000 O         0.0000000000         0.0000000000        -4.9536593790       -0.1158792538       -8.4957826142
atom        11.4824000000        3.0478900000        5.0748300000 O         0.0000000000         0.0000000000        22.9542850068        2.8865118552       -2.7489787469
atom        17.4388000000       11.0408000000       15.3503000000 O         0.0000000000         0.0000000000       -19.1856380085        4.8357969181        1.2230161638
atom         1.5011400000       10.6679000000        2.6292700000 O         0.0000000000         0.0000000000       -19.7522817943       -7.2215720338       -7.5933311283
atom        19.3859000000        9.9255100000        1.7740700000 O         0.0000000000         0.0000000000        11.0591470101        3.5003144617        4.8975300052
atom        13.0079000000       16.3018000000        5.9386900000 O         0.0000000000         0.0000000000        -1.4234353866        4.4822556566      -15.3342267034
atom        12.9285000000       17.3900000000        3.8358900000 O         0.0000000000         0.0000000000         0.1946079647      -10.7712360682       16.7127862635
atom         7.9256900000        1.5137800000       12.4365000000 O         0.0000000000         0.0000000000         1.3305936203       -8.8155401730        6.8104716444
atom        13.4405000000       19.5107000000       10.6539000000 N         0.0000000000         0.0000000000        26.3543322057       19.8439244121      -32.6500924185
atom        13.7851000000       19.2219000000       11.7974000000 N         0.0000000000         0.0000000000        28.1834256924       -3.6441661602       23.6945977797
atom        14.0206000000       18.8674000000       12.8633000000 N         0.0000000000         0.0000000000         5.4657649687       16.5357043153       -6.9187409173
atom         1.0621300000       19.9091000000       10.8180000000 N         0.0000000000         0.0000000000        19.3748959260      -14.9274155759      -16.6185608643
atom         1.9436800000       19.4117000000       10.3321000000 N         0.0000000000         0.0000000000       -12.9296572411       11.5153077104        6.7652729703
atom        19.8621000000        1.7209900000       12.0784000000 N         0.0000000000         0.0000000000        -4.8445829869        7.9222898457        6.1325607145
atom         0.3958500000       13.9352000000        4.3131800000 N         0.0000000000         0.0000000000       -17.4040953718      -13.3141457581        5.3503930470
atom        19.5013000000       13.2678000000        4.5936700000 N         0.0000000000         0.0000000000        17.0764741662       13.0869301785       -6.0006313193
atom         3.2813900000        7.8801500000        4.4750600000 N         0.0000000000         0.0000000000        15.3809243131       -2.3609158449       13.9668745695
atom         4.1169300000        7.7254300000        5.2103800000 N         0.0000000000         0.0000000000       -15.7328743969        2.5967791300      -14.3039736604
atom        11.0805000000       11.4477000000        6.0787200000 N         0.0000000000         0.0000000000        -5.9348395758       11.6113548928       -6.4183962071
atom        10.5875000000       12.3622000000        5.6550000000 N         0.0000000000         0.0000000000         7.2661019520      -12.7542817734        4.4593334718
atom         7.0813800000       16.7957000000        9.0068200000 N         0.0000000000         0.0000000000         9.4350848559        1.5254321905      -12.6397630920
atom         8.0697700000       16.8231000000        8.4807500000 N         0.0000000000         0.0000000000       -19.4753937943       -0.3908071072       -4.5035174818
atom         5.0172900000       10.3549000000        1.4713100000 N         0.0000000000         0.0000000000        -1.8129741636        1.0285696230      -14.5217574758
atom         4.8072700000       10.4027000000        0.3688400000 N         0.0000000000         0.0000000000         2.7273940739      -10.9974369837       43.7207927632
atom        10.4421000000       17.5442000000        9.4231700000 N         0.0000000000         0.0000000000        15.4593301763       -0.9581196488       -9.2549589153
atom        11.5016000000       17.7239000000        9.1153300000 N         0.0000000000         0.0000000000        -1.9594317040       -2.8220345630      -11.4097595821
atom         7.4559400000       12.5204000000       13.3303000000 N         0.0000000000         0.0000000000       -10.8370969933       17.1479388045        1.6795458328
atom         6.6376300000       13.0292000000       13.8983000000 N         0.0000000000         0.0000000000        13.4827414246        5.5870173302       -7.4361273725
atom         6.7370700000        7.7338100000        9.2633200000 N         0.0000000000         0.0000000000       -17.8115521947        9.8606672694       -5.9448017326
atom         5.7928200000        8.2575400000        8.9530500000 N         0.0000000000         0.0000000000        17.4821783874      -10.2456861790        6.1987444873
atom        12.1681000000        9.5655400000       13.4676000000 N         0.0000000000         0.0000000000       -12.0871862405        4.9259406003      -46.1529195804
atom        11.9279000000        9.5948000000       12.3698000000 N         0.0000000000         0.0000000000         4.3337457274       -0.6823616157       15.4587767232
atom        10.1195000000       12.3481000000       14.2051000000 N         0.0000000000         0.0000000000         2.8422817241        0.9856308826      -13.4058806180
atom        10.3775000000       12.4372000000       13.1206000000 N         0.0000000000         0.0000000000         0.5746227354       -2.1598048057        6.8473685212
atom         6.1753000000       11.3075000000       10.8486000000 N         0.0000000000         0.0000000000       -22.5196859190        0.1625076818       12.4530648953
atom         5.4112200000       11.8159000000       11.4924000000 N         0.0000000000         0.0000000000        11.7867303605       -9.9318782417       -9.3124258010
atom         1.2262800000       16.8552000000       15.1888000000 N         0.0000000000         0.0000000000        -4.4503629187      -18.9705753377       15.1648930993
atom         1.7554400000       15.9020000000       15.4445000000 N         0.0000000000         0.0000000000       -20.5523675075        7.6941749048        3.6327511889
atom         8.2518400000        8.9233400000        5.8891500000 N         0.0000000000         0.0000000000        11.6051054843        2.7935317256       17.3758462005
atom         8.8484500000        9.0841400000        6.8277600000 N         0.0000000000         0.0000000000       -11.5238170526       -3.1824709284      -17.6048143817
atom        12.9753000000       12.2802000000       14.6159000000 N         0.0000000000         0.0000000000         4.1548189353        1.1554948792        8.4148170302
atom        13.0678000000       12.5428000000       15.6989000000 N         0.0000000000         0.0000000000         4.8096231961      -12.3661496898       -9.7804165623
atom         3.6555000000       17.1895000000       13.8014000000 N         0.0000000000         0.0000000000        15.6942479789        4.7722420478      -18.0687695472
atom         4.3481600000       18.0185000000       13.5129000000 N         0.0000000000         0.0000000000        -4.2883625689       -3.7715065063       -3.6424596796
atom        12.2570000000       17.7857000000       14.5705000000 N         0.0000000000         0.0000000000       -20.7700129597       15.3452957664        3.6971362389
atom        14.4071000000       16.8701000000       14.8057000000 N         0.0000000000         0.0000000000        28.8674246070       -0.1086843628        3.9630935392
atom        13.3379000000       17.3456000000       14.7033000000 N         0.0000000000         0.0000000000         8.4316973513       12.0810521348        0.7503210507
atom         9.9798700000        6.8287100000       14.9825000000 N         0.0000000000         0.0000000000         3.0846942048       -8.1079733783      -12.5700049343
atom        10.3503000000        6.4998200000       13.9771000000 N         0.0000000000         0.0000000000        -6.3980106827        3.4112085041       10.8234682095
atom         9.1037700000       14.1434000000        7.9517400000 N         0.0000000000         0.0000000000        -2.1918128464       -5.4982803414      -16.9721482470
atom         8.4089900000       13.4902000000        7.3662500000 N         0.0000000000         0.0000000000        10.1958523348        7.8536155337       -3.1820788991
atom        11.3742000000       16.6938000000       12.0451000000 N         0.0000000000         0.0000000000        15.0939357931       -3.1549596946       -1.8273870061
atom        12.3873000000       17.0984000000       11.7952000000 N         0.0000000000         0.0000000000       -13.3797299566      -27.3357430080       -3.3779551939
atom         5.8026100000       11.0782000000        7.2715100000 N         0.0000000000         0.0000000000         5.5468227950        2.8167767580        3.6741218120
atom         6.4135300000       11.6299000000        8.0308300000 N         0.0000000000         0.0000000000       -14.9250172789      -12.7964133946      -16.9831020073
atom         0.2071400000       17.6949000000       12.8101000000 N         0.0000000000         0.0000000000         7.8834097618        1.8632922794       -9.9611190166
atom         1.2099300000       17.4258000000       12.3914000000 N         0.0000000000         0.0000000000       -14.1955199031        7.1130029738        0.7352163917
atom         2.6483400000       10.4056000000       11.6797000000 N         0.0000000000         0.0000000000       -38.3798084198      -86.7010882692     -225.2570472203
atom         2.1583600000       11.5846000000       13.0494000000 N         0.0000000000         0.0000000000        93.7184822109       76.2837624313      231.0027903024
atom         3.1220300000       10.5690000000       12.7842000000 N         0.0000000000         0.0000000000       145.6349706771       44.0760635659      218.3543333838
atom         1.6687500000       11.4126000000       11.9501000000 N         0.0000000000         0.0000000000      -127.6842250146       21.8941224331     -190.6931368617
atom         7.5167300000        8.5138800000       15.7268000000 N         0.0000000000         0.0000000000        -9.8023471435      -13.5554282719        0.1092608765
atom         6.8271500000        7.8311300000       15.1684000000 N         0.0000000000         0.0000000000         5.5508122698        4.1854894642        4.8845238561
atom         8.5963500000       17.4807000000       12.4044000000 N         0.0000000000         0.0000000000        -4.0776352811        3.8223780752       -8.4001735822
atom         8.3752100000       17.7891000000       11.3519000000 N         0.0000000000         0.0000000000        -0.1381788037       -4.2136002722       20.9074538258
atom         2.8934800000       14.3057000000       13.4930000000 N         0.0000000000         0.0000000000        11.6693291105       -3.8023384590      -12.7894029880
atom         3.7576300000       13.9899000000       12.8553000000 N         0.0000000000         0.0000000000        -9.6799186941        7.2560244925        6.6206602737
atom         5.8931700000       18.7727000000       10.6802000000 N         0.0000000000         0.0000000000       -13.6891794504       12.6295933903        1.6854493331
atom         5.0772500000       19.5148000000       10.8750000000 N         0.0000000000         0.0000000000         7.1961823705       -4.6509896864       -1.6648101426
atom        15.2967000000       14.0298000000       14.9157000000 N         0.0000000000         0.0000000000        15.8707303529        4.7236765337        5.5565543462
atom        16.0391000000       14.5437000000       15.5765000000 N         0.0000000000         0.0000000000        -1.6228168847       -6.4801984758       -3.8210866845
atom         8.4978500000       10.0102000000       13.4550000000 N         0.0000000000         0.0000000000         0.7220026977      -10.1307985288      -15.4117562658
atom         7.9516500000        9.7310300000       12.5202000000 N         0.0000000000         0.0000000000         5.3101293302       -5.5039532362        4.5720303700
atom         3.3642000000       15.5036000000       10.2002000000 N         0.0000000000         0.0000000000        -6.8275825710        2.9678002870        7.4957619497
atom         2.4071700000       15.2906000000       10.7389000000 N         0.0000000000         0.0000000000        17.2488056415        5.1975477348        0.6759507833
atom        12.7807000000       15.9727000000        0.2368600000 N         0.0000000000         0.0000000000         5.7134352544       -8.6565838155       24.1707519750
atom        13.3316000000       15.0187000000        0.4270500000 N         0.0000000000         0.0000000000        -0.3860105132        8.3096148101       12.7214204925
atom        12.6000000000       12.6692000000        8.7576200000 N         0.0000000000         0.0000000000        -7.0036959762       13.1035107125       -0.1399083448
atom        12.0532000000       13.6472000000        8.8126800000 N         0.0000000000         0.0000000000         9.2375943227      -13.9581346218       -0.6506072411
atom        13.9407000000        9.7570000000       15.4436000000 N         0.0000000000         0.0000000000        43.6133536700       41.3324118056        8.4354100995
atom        13.3246000000        8.7664100000       15.4362000000 N         0.0000000000         0.0000000000        17.5501147618      -17.8527152729       14.5643041869
atom        12.6495000000        7.8148100000       15.4280000000 N         0.0000000000         0.0000000000       -19.5569589526      -47.9352462757        2.3131574500
atom         6.9342100000       17.5752000000       15.9847000000 N         0.0000000000         0.0000000000        -3.6885577151        4.7242530474       -7.9261409572
atom         6.7844100000       17.6673000000       14.8794000000 N         0.0000000000         0.0000000000         1.2128003411        6.3999938898       14.7775450744
atom         5.9240200000       16.0112000000       11.6780000000 N         0.0000000000         0.0000000000         0.3456084331       -3.4292187921        8.2784138887
atom         6.1729400000       15.8205000000       12.7517000000 N         0.0000000000         0.0000000000         0.8693134784       -2.0180285565      -14.6683533795
atom         1.7619300000        6.4732100000        0.2824800000 N         0.0000000000         0.0000000000         4.2010783946       17.2812287720       10.6954591074
atom         1.9413200000        7.4175000000        0.8633700000 N         0.0000000000         0.0000000000        -4.4125436199      -17.2123238546      -10.0451747141
atom         0.4502000000       13.2690000000        0.3105100000 N         0.0000000000         0.0000000000       -15.0853111481        4.7928120566        9.5225073934
atom        19.4880000000       13.4869000000        0.9053100000 N         0.0000000000         0.0000000000        14.3952473094       -3.9189556503       -8.9123252930
atom         5.8544600000        0.6687200000       15.4114000000 N         0.0000000000         0.0000000000       -12.2887815512        9.4443090751       -8.4801475627
atom         5.0410100000        1.1767200000       14.8290000000 N         0.0000000000         0.0000000000        12.8093734226       -7.5629603866        8.0784558768
atom        18.7562000000        6.2851800000        2.6285000000 N         0.0000000000         0.0000000000        16.9241361861        1.4432443973       17.8647528789
atom        19.5421000000        6.3331000000        3.4317200000 N         0.0000000000         0.0000000000       -16.7568549708       -1.1065373358      -17.6789540436
atom         9.3007500000       15.3329000000       10.4498000000 N         0.0000000000         0.0000000000         4.4439982074      -18.3648900442       10.2382837431
atom         9.8015300000       14.3604000000       10.6827000000 N         0.0000000000         0.0000000000         1.0472256063        9.6295775178        3.8851719474
atom        11.3535000000       10.1041000000       15.9316000000 N         0.0000000000         0.0000000000       -33.1116262264        7.8596573973       11.9590387752
atom        10.3251000000        9.7262700000       15.6986000000 N         0.0000000000         0.0000000000        10.7979401828        2.3417064084        5.4832909852
atom         7.9888800000       11.2634000000       15.8758000000 N         0.0000000000         0.0000000000        -3.0660151609       10.5338738475       13.6746282446
atom         8.0413400000       12.0723000000        0.2112300000 N         0.0000000000         0.0000000000        -4.3557685507       -7.8367352126        0.2894790592
atom        15.2856000000       15.9682000000        8.9222000000 N         0.0000000000         0.0000000000       -21.6701814513        0.8777997601        9.1249204851
atom        14.2606000000       15.9015000000        9.3769600000 N         0.0000000000         0.0000000000        21.7918027815        0.2745588846       -9.1126292130
atom        17.1235000000       17.0650000000       13.3188000000 N         0.0000000000         0.0000000000        -5.2818801589       -7.1285688437       -5.0465242059
atom        16.6128000000       16.2290000000       12.7765000000 N         0.0000000000         0.0000000000         6.9659227986        9.7517984222        2.8361014973
atom         8.8268300000       11.7346000000       10.5598000000 N         0.0000000000         0.0000000000         2.7407230707       -4.0145416218      -12.7166469591
atom         8.6117600000       11.6121000000        9.4678500000 N         0.0000000000         0.0000000000        18.8166692403       -6.4762781826       14.3733859099
atom        11.3031000000       19.5803000000       12.2417000000 N         0.0000000000         0.0000000000       -21.6622255623       10.5478716002       -3.6169777740
atom        10.6606000000       19.3182000000       11.3638000000 N         0.0000000000         0.0000000000         2.8742205831       21.6852399892       16.1449663898