begin
comment generated by PY
lattice        19.9650000000         0.0000000000         0.0000000000
lattice         0.0000000000        19.9650000000         0.0000000000
lattice         0.0000000000         0.0000000000        16.4367122000
atom        10.9234000000       13.4288000000       11.4009000000 H         0.0000000000         0.0000000000        65.0398198044       94.0792028855      -22.0230148212
atom         8.4579900000       16.4026000000        9.2936500000 H         0.0000000000         0.0000000000        46.4503107748      -77.9389688489       -1.2127919876
atom         9.9242900000       15.3813000000        9.6082400000 H         0.0000000000         0.0000000000       -84.6863362459        8.1782388409      -31.4091556907
atom        12.2216000000       14.1142000000       11.6367000000 H         0.0000000000         0.0000000000      -104.0517790631        5.4992528546      -52.9349437824
atom         8.9734800000       13.0629000000        3.8385900000 H         0.0000000000         0.0000000000        92.4628302370       57.7115634610      -36.9230762174
atom        16.4371000000       13.2919000000       15.2134000000 H         0.0000000000         0.0000000000      -136.6482323552       10.4513217394       16.7251316917
atom        10.7772000000       13.8118000000        6.5978500000 H         0.0000000000         0.0000000000        11.3160376234        2.1284365862       -3.1582941370
atom         7.9553600000        8.0224600000       14.5015000000 H         0.0000000000         0.0000000000        81.0354520010       89.3463462941       38.4302459293
atom        11.0919000000        8.6603100000       13.5694000000 H         0.0000000000         0.0000000000       -33.5133299589      -40.6907586130      113.3692967653
atom        11.3685000000        8.6644700000       15.1349000000 H         0.0000000000         0.0000000000       -67.0937914630      -38.8913519373      -94.5206432214
atom         9.7083300000        8.4570500000       14.6470000000 H         0.0000000000         0.0000000000         4.7707750921       12.4804809724      -13.7035736609
atom         8.2606100000        9.5732400000       14.6395000000 H         0.0000000000         0.0000000000        43.3981222213     -121.7256425457       20.2437320749
atom        13.9807000000        7.6498300000        7.4270100000 H         0.0000000000         0.0000000000        35.4624320953     -107.1030274142       30.5044994966
atom        15.2248000000        6.7609900000        8.0193200000 H         0.0000000000         0.0000000000      -111.8389519092       -5.2297756786      -31.2861412187
atom        13.6683000000        6.3362000000        8.3463400000 H         0.0000000000         0.0000000000        72.3888168827       46.6917535334      -74.2420246982
atom        11.9402000000       15.4065000000        2.2266600000 H         0.0000000000         0.0000000000       -32.7229250548       39.6418365622      -55.0347911674
atom        15.3955000000       14.9227000000        3.4934200000 H         0.0000000000         0.0000000000       -43.6219623682      -25.0917570089     -108.2059615012
atom        15.3847000000       13.9847000000        2.3378500000 H         0.0000000000         0.0000000000       -38.6868033338       98.1835175171       47.8813266755
atom         1.9870300000        7.8417300000        2.6061600000 C         0.0000000000         0.0000000000        -1.3039581538       -4.9412313001        5.3491648626
atom         8.2768800000       14.4351000000        8.9024800000 C         0.0000000000         0.0000000000        75.4577513397      108.6046021527       27.2485668624
atom        17.0712000000       10.5207000000        2.1118200000 C         0.0000000000         0.0000000000         9.4120865232       -2.4907323822        1.3550614505
atom        16.9302000000       17.3044000000        0.9948800000 C         0.0000000000         0.0000000000        -6.5666379220        0.9741667251       10.3004312179
atom        10.7165000000       15.6202000000       14.4496000000 C         0.0000000000         0.0000000000         3.2188421676       -6.1788205887       -7.8291345727
atom        10.5037000000       14.0811000000        4.3677100000 C         0.0000000000         0.0000000000         6.6190053347        4.1053466189       24.0789978522
atom        17.7923000000        8.8200300000       12.1482000000 C         0.0000000000         0.0000000000         4.7906511186       -9.3259308406        5.9881048548
atom        14.7341000000       13.4107000000       14.3463000000 C         0.0000000000         0.0000000000       -57.3294507190       20.1364082920       29.5245221082
atom        17.8535000000       15.6288000000        9.9020000000 C         0.0000000000         0.0000000000        -2.1658264698        2.6344093672       -8.8863130090
atom         4.7906600000        8.9619800000       13.1724000000 C         0.0000000000         0.0000000000       -16.7449451563       -7.5280311358       -2.9976346561
atom         4.8183500000       10.3811000000        0.2503400000 C         0.0000000000         0.0000000000        -3.5015283486       -0.4023614892        1.0537765853
atom        15.6380000000       17.8402000000       13.2526000000 C         0.0000000000         0.0000000000      -114.9854568396     -149.5423587052        3.0454926118
atom        14.5674000000        8.6922100000        3.5358600000 C         0.0000000000         0.0000000000         0.5210626750        2.5374395534        0.1238982785
atom        12.1054000000       12.8110000000        7.9874300000 C         0.0000000000         0.0000000000      -132.3489935993      147.1349150095     -106.3438215084
atom        13.2673000000        9.8226700000       11.3223000000 C         0.0000000000         0.0000000000       -10.0622101108       -8.8315295057       -5.3191660819
atom        12.9637000000       11.4179000000        4.9456200000 C         0.0000000000         0.0000000000        -0.2933912629       14.2344518857        4.2211467907
atom        12.6599000000       11.4143000000        0.4580900000 C         0.0000000000         0.0000000000        -4.2765847890       14.4144887458       18.2064886666
atom        18.9750000000       14.0643000000        1.4195800000 C         0.0000000000         0.0000000000       -17.3160111671        0.2311275656        4.3748893537
atom         9.3488400000       10.9217000000        1.0747200000 C         0.0000000000         0.0000000000         4.9404463287       -0.9688258847        2.2512711078
atom        11.3770000000        6.1601900000        5.5972500000 C         0.0000000000         0.0000000000         2.7052179699       -5.7422829861        2.5584660701
atom        15.8897000000       12.9982000000       11.9075000000 C         0.0000000000         0.0000000000        19.5488473629        1.0306136117        4.8620044856
atom        10.4203000000       16.1840000000        1.3498300000 C         0.0000000000         0.0000000000       178.0958816386      -49.0757568891       28.5036165252
atom        13.4055000000       19.2841000000       15.3920000000 C         0.0000000000         0.0000000000         6.6937373834       -1.1240666191       -2.1370067183
atom        15.4600000000        8.9308700000       14.6440000000 C         0.0000000000         0.0000000000        -1.2746831695        3.3612475795        0.5921499702
atom         5.2370700000       17.7009000000        9.2378200000 C         0.0000000000         0.0000000000        -5.0845417441        8.5857119421        4.0381157338
atom        17.0859000000       10.8484000000        8.1572400000 C         0.0000000000         0.0000000000         9.6040241818        2.1469052085       -2.0297733254
atom         3.1015800000        7.9566600000        2.2290600000 O         0.0000000000         0.0000000000      -191.1085424788      -17.8412025269       62.7907939824
atom         0.8781200000        7.7136400000        2.9945600000 O         0.0000000000         0.0000000000       192.1950998862       23.8149430810      -68.9924325600
atom         7.2331400000       19.0843000000       11.7880000000 O         0.0000000000         0.0000000000        13.4251406560        3.6224040299      292.8762006734
atom         4.3059800000        1.1812200000       11.8612000000 O         0.0000000000         0.0000000000       -69.4441313593      287.7393973506       25.3877607934
atom         7.6403500000       13.5363000000        8.5357900000 O         0.0000000000         0.0000000000        85.4448485300      129.7949782132       54.6805447918
atom        11.3910000000       14.2332000000       11.1795000000 O         0.0000000000         0.0000000000        32.8515779171      -98.5095840984       73.1567422272
atom        17.7155000000        9.5272800000        2.0874300000 O         0.0000000000         0.0000000000      -115.9895801434      174.5475691843        4.2038477075
atom        16.4402000000       11.5212000000        2.1411100000 O         0.0000000000         0.0000000000       106.7084440126     -172.8987661110       -6.2137248474
atom        16.9606000000       16.6880000000       16.4237000000 O         0.0000000000         0.0000000000        -3.4807434115      104.7224441673      170.6236432136
atom        16.8911000000       17.9177000000        2.0061500000 O         0.0000000000         0.0000000000         9.1748572936     -106.9411681083     -180.1040662928
atom        11.2311000000       16.6555000000       14.2068000000 O         0.0000000000         0.0000000000       -89.6794031377     -177.8353165047       44.4649596676
atom        10.2097000000       14.5717000000       14.6652000000 O         0.0000000000         0.0000000000        86.6635033170      183.9801103453      -35.4565884326
atom        11.5731000000       14.5910000000        4.0155400000 O         0.0000000000         0.0000000000      -148.2508655056      -71.4616199212       41.3386350015
atom         9.9668900000       14.0059000000        5.5391700000 O         0.0000000000         0.0000000000        75.8577073877        3.6438012089     -115.8459164680
atom         9.7254800000       13.4830000000        3.4074300000 O         0.0000000000         0.0000000000       -14.7826719624       -0.3172238196      105.1029724247
atom        17.1533000000        9.5898100000       11.5201000000 O         0.0000000000         0.0000000000       107.5189753015     -129.9042389643      106.3771975751
atom        18.4211000000        8.0389100000       12.7806000000 O         0.0000000000         0.0000000000      -112.3677899537      140.1374635825     -112.3544997790
atom        15.4521000000       13.3837000000       15.4229000000 O         0.0000000000         0.0000000000        30.4118923776        0.2843890323     -115.1853051172
atom        13.6337000000       13.6223000000       13.9839000000 O         0.0000000000         0.0000000000       151.2141914300      -27.7377504004       77.7726970188
atom        17.6932000000       16.0700000000       10.9868000000 O         0.0000000000         0.0000000000        27.3691280816      -77.7764905294     -184.1022947908
atom        18.0030000000       15.2005000000        8.8085700000 O         0.0000000000         0.0000000000       -24.9148835392       73.9551630315      193.2757990241
atom         5.9099900000        8.9092900000       13.5664000000 O         0.0000000000         0.0000000000      -186.2444142084       11.2617532456      -65.7216380026
atom         3.6752700000        8.9900900000       12.7895000000 O         0.0000000000         0.0000000000       203.5991456122       -3.0924381555       68.9002910191
atom         5.8523900000       10.0798000000        0.7458300000 O         0.0000000000         0.0000000000      -178.1542963310       52.7131840603      -86.8002758814
atom         3.7816600000       10.6732000000       16.1986000000 O         0.0000000000         0.0000000000       182.4783864728      -52.3128037881       85.6389436571
atom        14.9520000000       16.9337000000       13.2679000000 O         0.0000000000         0.0000000000       115.0089030187      149.9495549248       -2.4615029566
atom        13.9886000000        8.7755400000        2.5057500000 O         0.0000000000         0.0000000000       101.7634165104      -14.8758786184      180.1294474007
atom        15.1510000000        8.6148200000        4.5637300000 O         0.0000000000         0.0000000000      -102.5731458206       12.9450057783     -180.0090013222
atom        12.7422000000       11.9866000000        8.5435700000 O         0.0000000000         0.0000000000       -73.4393225692      101.8051673906      -64.4094854477
atom        12.9227000000       10.6735000000       12.0696000000 O         0.0000000000         0.0000000000        61.1909136501     -144.2585139403     -125.4951371457
atom        13.5726000000        8.9512600000       10.5829000000 O         0.0000000000         0.0000000000       -50.5415794522      153.2428047484      129.7047854005
atom        11.9546000000       10.7993000000        4.8976300000 O         0.0000000000         0.0000000000       177.3296850800      103.3659868280        6.6344393719
atom        13.9681000000       12.0455000000        4.9987500000 O         0.0000000000         0.0000000000      -176.8261680109     -116.7191815250      -10.1139140728
atom         8.5922500000        8.6719600000       14.8665000000 O         0.0000000000         0.0000000000       -84.5080649614       21.6949532409      -59.0912789225
atom        10.8261000000        8.2579000000       14.4257000000 O         0.0000000000         0.0000000000        54.9326365927       81.6225130343       -5.7068006336
atom        12.7118000000       12.1775000000        1.3570200000 O         0.0000000000         0.0000000000        -8.4325809909     -140.2589213421     -164.1515594051
atom        12.5923000000       10.6433000000       15.9953000000 O         0.0000000000         0.0000000000        11.6845626005      123.2495389016      145.3928801304
atom        18.8299000000       14.5359000000        2.4968800000 O         0.0000000000         0.0000000000        31.5294791891      -82.4202164945     -190.4820092547
atom        19.0733000000       13.5835000000        0.3431300000 O         0.0000000000         0.0000000000       -13.7993311895       82.2744752138      185.3636290163
atom         9.5929900000       10.0561000000        1.8446800000 O         0.0000000000         0.0000000000       -42.8236450305      150.0774361655     -134.4776485369
atom         9.1197500000       11.7791000000        0.2927600000 O         0.0000000000         0.0000000000        37.9849129220     -148.4115111164      132.9014057010
atom        14.2825000000        6.6952700000        7.6154000000 O         0.0000000000         0.0000000000         7.0993669848       64.2529537265       82.1037500564
atom        11.0956000000        5.2499000000        6.2982100000 O         0.0000000000         0.0000000000        47.0421825240      157.6532480046     -120.4823711304
atom        11.6674000000        7.0632700000        4.8950900000 O         0.0000000000         0.0000000000       -49.6524412465     -151.6027991775      118.0158185735
atom        15.6789000000       12.9244000000       10.7683000000 O         0.0000000000         0.0000000000        14.0697589945       10.8374130731      155.8219076208
atom        16.0478000000       13.0855000000       13.0880000000 O         0.0000000000         0.0000000000       -19.6535515963      -13.7114194309     -169.5129323237
atom         0.7685500000        9.8172700000       10.5661000000 O         0.0000000000         0.0000000000       211.0285116056      -62.7993274051     -179.8104975914
atom         9.2709600000       16.4159000000        1.2870100000 O         0.0000000000         0.0000000000       166.4058696525      -26.6758480418       -2.5343794758
atom        13.0611000000       19.9356000000       14.4653000000 O         0.0000000000         0.0000000000        57.0424565135     -111.9834023321      160.6453215503
atom        13.7671000000       18.6335000000       16.3092000000 O         0.0000000000         0.0000000000       -63.7480381185      113.0483166954     -158.7675699395
atom         2.9710100000       15.5549000000       12.2396000000 O         0.0000000000         0.0000000000      -240.9107904481      158.4577470556       21.4841728574
atom         1.3582500000       17.0141000000       11.7736000000 O         0.0000000000         0.0000000000       150.6557905230     -197.6324060636      132.2649098425
atom        14.7610000000        8.1397900000       14.1054000000 O         0.0000000000         0.0000000000       122.1484479187      137.4651178831       93.4861601431
atom        16.1531000000        9.7269200000       15.1808000000 O         0.0000000000         0.0000000000      -121.0378951411     -140.7855165479      -94.0021203935
atom         4.2347200000       18.1794000000        9.6360700000 O         0.0000000000         0.0000000000       179.4046714532      -86.4911685128      -71.7565835078
atom         6.2535800000       17.2377000000        8.8350100000 O         0.0000000000         0.0000000000      -172.7586555222       76.0055701772       68.7813951151
atom        15.0115000000       14.8132000000        2.6243800000 O         0.0000000000         0.0000000000        83.2996829696      -71.3532379890       58.5948302848
atom        18.1255000000       11.3782000000        8.3623300000 O         0.0000000000         0.0000000000      -185.5157750852      -94.0179696777      -35.5279679145
atom        16.0546000000       10.3103000000        7.9418000000 O         0.0000000000         0.0000000000       175.5657527816       91.5726038695       37.6981812041
atom         2.4119500000       14.6306000000        1.8856800000 N         0.0000000000         0.0000000000        30.7166268502      -90.2690272801     -219.4634445259
atom         2.5607000000       14.2062000000        0.8583200000 N         0.0000000000         0.0000000000       -31.6557187369       89.9727006460      219.7360912465
atom         7.2886700000       19.1012000000       12.9435000000 N         0.0000000000         0.0000000000       -10.9832153838        0.2959326591     -295.4623536031
atom         4.0322000000        2.3059100000       11.9573000000 N         0.0000000000         0.0000000000        70.1897883131     -288.2950080310      -24.6447235764
atom         3.6093000000        0.9175300000       15.4600000000 N         0.0000000000         0.0000000000       225.2305450247      102.0833407509       16.8414159359
atom         4.6303000000        1.3811400000       15.5367000000 N         0.0000000000         0.0000000000      -225.2707099944     -101.9365632761      -17.1939622912
atom         8.9302200000       15.4601000000        9.2638000000 N         0.0000000000         0.0000000000      -116.6632652979     -171.9023856046      -52.0216584087
atom         0.8353200000       14.2362000000       11.3896000000 N         0.0000000000         0.0000000000      -116.9965631044     -170.2980245386     -138.3182444462
atom         0.3088500000       13.4571000000       10.7764000000 N         0.0000000000         0.0000000000       111.1402188627      165.8632325944      130.6324960155
atom        11.4436000000       13.6533000000        7.4391100000 N         0.0000000000         0.0000000000       181.5227987897     -243.8548684357      154.6371886177
atom         6.2216300000       12.7444000000       14.3136000000 N         0.0000000000         0.0000000000       198.3499566604       -0.3399702550     -129.7861624431
atom         7.1502300000       12.7671000000       13.6887000000 N         0.0000000000         0.0000000000      -194.4265029904       -5.7070579077      133.0109827115
atom         5.0847300000       18.1264000000       13.5340000000 N         0.0000000000         0.0000000000      -237.9336840935        4.1729237892       -6.4259786855
atom         3.9649700000       18.1590000000       13.4973000000 N         0.0000000000         0.0000000000       232.7469082410       -3.1012113736        5.4049016735
atom         0.5567700000       17.8202000000        1.6884600000 N         0.0000000000         0.0000000000       -21.7774705781     -117.3428309586     -215.1248940705
atom         0.4569800000       17.2816000000        0.7074800000 N         0.0000000000         0.0000000000        21.0310404227      117.1171784086      215.7427826695
atom        19.7461000000       11.4848000000       13.4544000000 N         0.0000000000         0.0000000000       230.0887123636       -3.9085797846       69.2635051167
atom         0.8543300000       11.4678000000       13.7781000000 N         0.0000000000         0.0000000000      -230.8477446912        2.8867004279      -69.3731503980
atom         1.6273400000        9.5621300000        9.8332000000 N         0.0000000000         0.0000000000      -211.3794752861       62.6842327940      180.5484959130
atom         5.5934600000       14.5761000000       12.2601000000 N         0.0000000000         0.0000000000        26.2336888918      236.4967206983      -32.5134512739
atom         5.7063100000       15.6763000000       12.0992000000 N         0.0000000000         0.0000000000       -23.3334157055     -227.8923313731       30.9422213553
atom        11.6183000000       15.9445000000        1.3988700000 N         0.0000000000         0.0000000000      -315.6389232084       33.0390902938       35.1241238431
atom         7.3760100000       16.6978000000       14.4718000000 N         0.0000000000         0.0000000000      -107.8488452657     -202.0883424176       50.5411422369
atom         6.8478000000       15.7374000000       14.7019000000 N         0.0000000000         0.0000000000       115.4809300058      202.2632643411      -46.3372132608
atom         4.8479500000       17.9533000000        0.8217200000 N         0.0000000000         0.0000000000       231.8138139899       47.1798735499      -66.5623282019
atom         5.9069500000       18.1700000000        0.5164100000 N         0.0000000000         0.0000000000      -231.7712167756      -47.1510847350       66.5859162355
atom         0.9135400000       15.4504000000       13.7761000000 N         0.0000000000         0.0000000000        72.1486666419     -163.5712552006       60.7319826700
atom         1.3897600000       14.4792000000       14.0973000000 N         0.0000000000         0.0000000000       -82.5687763948      157.7210573979      -47.5447972405
atom         1.9350300000       16.1823000000       12.4206000000 N         0.0000000000         0.0000000000        99.0230272798       52.6992950332     -161.1254231053
atom        16.1056000000        6.3018100000       10.1775000000 N         0.0000000000         0.0000000000       -48.3188229750      -61.1001940272      204.7787934219
atom        15.8752000000        5.9888800000       11.2330000000 N         0.0000000000         0.0000000000        45.8463205607       63.2296450933     -211.8224483258
atom        10.6833000000        8.7984400000        7.9080700000 N         0.0000000000         0.0000000000       -43.0231014279     -190.3760494354      149.2464452254
atom        10.4893000000        7.9285300000        8.5932300000 N         0.0000000000         0.0000000000        43.0607608749      190.3399547972     -149.9650147659
atom         0.5039000000        8.7068500000       15.9618000000 N         0.0000000000         0.0000000000       150.5922172816     -175.8033897455      -91.6865315850
atom         1.1842000000        7.9132900000       15.5476000000 N         0.0000000000         0.0000000000      -150.2713800100      175.8975010099       92.0423716086
atom        10.0317000000       19.6258000000       16.3443000000 N         0.0000000000         0.0000000000       103.3035659553       56.9379506691      216.8880211910
atom        10.5000000000       19.8868000000        0.8950800000 N         0.0000000000         0.0000000000      -102.6770817051      -57.4134619548     -217.0296215895
atom         4.1021800000       14.3519000000       10.0774000000 N         0.0000000000         0.0000000000       -56.1128152708       34.6901444634     -229.9855487237
atom         3.8407400000       14.5242000000        9.0007100000 N         0.0000000000         0.0000000000        53.9048736007      -34.5275688715      224.4454551007
atom         9.2365500000       11.1668000000       11.5286000000 N         0.0000000000         0.0000000000       -66.1479800452     -214.7016820942      -66.5298342750
atom         8.9153600000       10.1335000000       11.2238000000 N         0.0000000000         0.0000000000        67.9591798725      217.2039449448       66.5391131606
atom         6.3224800000       14.0323000000        1.5224600000 N         0.0000000000         0.0000000000       -97.9205587287      -56.6848111316     -213.1841735385
atom         5.8664700000       13.7677000000        0.5315300000 N         0.0000000000         0.0000000000        98.7892776935       56.3615725218      216.6975743409
atom         5.5337000000       11.9651000000       11.3844000000 N         0.0000000000         0.0000000000        43.8260290214     -181.5587904549     -156.9774957331
atom         5.7241500000       11.1307000000       10.6599000000 N         0.0000000000         0.0000000000       -40.5799427189      174.9690376449      152.6242467557
atom         2.0561000000       11.2868000000        3.2632900000 N         0.0000000000         0.0000000000      -198.3939115630       26.0067349701     -148.0406018453
atom         1.1589300000       11.4085000000        2.5970000000 N         0.0000000000         0.0000000000       197.9048033761      -26.0743109365      147.9580605837
atom         4.3143000000       14.9255000000       14.7591000000 N         0.0000000000         0.0000000000      -146.1493614939      189.0121159254       11.6706151811
atom         3.6220300000       15.8044000000       14.8022000000 N         0.0000000000         0.0000000000       146.5132068586     -187.4835997602       -6.1423313976
atom         3.5691600000       12.9429000000       13.2850000000 N         0.0000000000         0.0000000000       -84.9443170490       -6.1416203169     -223.3435143486
atom         3.1860300000       12.9338000000       12.2338000000 N         0.0000000000         0.0000000000        78.9409581421       -0.4115847561      223.2948937825
energy    -32256.9991249910
charge 0
end
begin
comment generated by PY
lattice        22.0144534570         0.0000000000         0.0000000000
lattice         0.0000000000        22.0144534570         0.0000000000
lattice         0.0000000000         0.0000000000        18.1239787490
atom        18.2182300000       18.0278300000        7.8817400000 H         0.0000000000         0.0000000000       -13.2748049115      148.3195569414       -6.1030413800
atom         6.3052600000       12.9736300000       11.4803300000 H         0.0000000000         0.0000000000        81.1164689961        6.6478758687      -54.3408160187
atom         7.7570700000       13.2152300000       11.8068300000 H         0.0000000000         0.0000000000        17.4445485265       -8.2283485345       -3.4158976221
atom        17.5782300000       19.2688300000        8.5042500000 H         0.0000000000         0.0000000000        78.9100823509      -43.6567065302      -89.9801139448
atom         9.8277200000       17.2263300000        5.5837900000 H         0.0000000000         0.0000000000       -57.2679156693      -88.1149897379       31.6751568550
atom        19.4085300000       14.3867300000       17.9803300000 H         0.0000000000         0.0000000000       -21.8731637672       94.6648865471       43.4659159470
atom        10.3206400000       15.1486300000        8.5962000000 H         0.0000000000         0.0000000000        16.9296508974      -46.8598586284      -43.1740451315
atom         8.0989400000        8.8580100000        1.4910300000 H         0.0000000000         0.0000000000        64.3912059045       53.9275071067      -77.5023441166
atom        13.1313300000        7.6295200000       16.6608300000 H         0.0000000000         0.0000000000      -101.0240874688       39.7612931633      -76.2230541320
atom        11.8576300000        7.4580800000       15.7361300000 H         0.0000000000         0.0000000000        85.4341283247       58.1879268079       59.3239254945
atom         8.7108800000       10.3559900000        0.0300500000 H         0.0000000000         0.0000000000         5.4877145774      -94.9628290452       69.5130640577
atom         8.3510500000        8.8065300000       18.0168300000 H         0.0000000000         0.0000000000        73.4642353956       68.9068162289      107.1485210940
atom        17.1732300000        8.7079400000       11.1802300000 H         0.0000000000         0.0000000000       -10.9189196784      -27.7298646080     -128.3690500661
atom        15.8118300000        8.6968800000        9.2923100000 H         0.0000000000         0.0000000000        27.7571944186       -0.0878992784       23.5214841181
atom        18.0695300000        8.5851000000        9.8357600000 H         0.0000000000         0.0000000000      -148.8013663025      -16.1821668668       61.6858770465
atom        10.3659000000       20.3644300000        0.6883400000 H         0.0000000000         0.0000000000        13.2794304448        3.6620551327      106.9532121394
atom        18.6168300000       17.0497300000        2.7138700000 H         0.0000000000         0.0000000000       -33.6438379835      -90.1646246257       81.6005083381
atom        17.8429300000       15.8326300000        3.1242000000 H         0.0000000000         0.0000000000        40.7621190682       49.5717969874        0.3252724988