begin
comment generated by PY
lattice        19.9650000000         0.0000000000         0.0000000000
lattice         0.0000000000        19.9650000000         0.0000000000
lattice         0.0000000000         0.0000000000        16.4367121000
atom        19.2115000000       19.8282000000        2.5545500000 N         0.0000000000         0.0000000000        -4.8399016957       15.2743845813      -14.4665044028
atom        18.7752000000        0.8929500000        2.5997700000 N         0.0000000000         0.0000000000         5.7990360086       -8.6986462551       -6.0137988922
atom         5.0324900000        3.7003900000       13.1745000000 N         0.0000000000         0.0000000000         9.1610102427       19.0365746262      -10.4919728318
atom         5.5093400000        4.5779400000       12.6577000000 N         0.0000000000         0.0000000000       -10.4439607708      -18.8736518545       10.9845691979
atom        18.8107000000        5.4926700000        5.5812700000 N         0.0000000000         0.0000000000         9.7655194483       -8.2461060609        5.8757123307
atom        19.5781000000        4.7750300000        5.9680000000 N         0.0000000000         0.0000000000        -8.5193274337       16.2903862056       -1.8900655756
atom        16.6575000000        5.8059000000        0.3290900000 N         0.0000000000         0.0000000000        -0.2406368185       11.2689288154       -5.2689201309
atom        16.7904000000        6.6844000000       16.0848000000 N         0.0000000000         0.0000000000        -5.9350240602      -10.0682122015        9.8454934288
atom        18.6915000000       11.6019000000        5.0757900000 N         0.0000000000         0.0000000000        -5.7311457552       10.9814790844        4.4735618300
atom        17.7220000000       12.1605000000        5.0743500000 N         0.0000000000         0.0000000000        12.3211124396      -10.9543137589        1.7918045805
atom        18.2902000000       12.2944000000        2.1997600000 N         0.0000000000         0.0000000000         8.2857240824       -6.9860546570      -16.6174308975
atom        17.8581000000       11.7400000000        1.3302700000 N         0.0000000000         0.0000000000         8.7821023783        6.6430290053        6.5810422522
atom        16.2350000000        8.5253100000        4.6049700000 N         0.0000000000         0.0000000000        -7.0980136176        0.2388611563        0.1100449351
atom        14.9749000000        6.9530700000        2.3144600000 N         0.0000000000         0.0000000000        -0.9052187517       -6.4593748009        5.0958045970
atom        15.4505000000        6.1746200000        2.9618400000 N         0.0000000000         0.0000000000        -3.3108951203       11.4095750977      -10.7582299191
atom        17.4372000000       10.3003000000       11.2367000000 N         0.0000000000         0.0000000000        17.9440581035        5.4460482002       10.5885042858
atom        17.8208000000       10.3047000000       12.2870000000 N         0.0000000000         0.0000000000         9.9491275316        4.4643376108      -15.9205872577
atom        18.6424000000        8.3984100000       14.0947000000 N         0.0000000000         0.0000000000        10.2718368405      -12.4821673069       -3.7925838472
atom        18.6565000000        7.3137000000       13.8201000000 N         0.0000000000         0.0000000000         5.8014804267        8.8563342824        0.3658555942
atom         9.9930700000        4.1769000000        4.2089200000 N         0.0000000000         0.0000000000         1.7808277597       -4.3208318205       15.6931410726
atom        10.1089000000        3.8937400000        5.2887300000 N         0.0000000000         0.0000000000        -2.5419411468        3.5833554950      -16.4727259587
atom        13.0344000000       11.2751000000       16.0376000000 N         0.0000000000         0.0000000000        -3.4185648190       -3.7603452010        3.5160648159
atom        15.3337000000        9.6518700000        1.1403400000 N         0.0000000000         0.0000000000         0.0295866831       -0.2476702856       -5.3813403025
atom        16.1712000000        9.2833600000        0.4975700000 N         0.0000000000         0.0000000000       -15.3194910132        2.6663066823        6.4565383535
atom        15.4091000000        9.2399700000       13.1385000000 N         0.0000000000         0.0000000000        -3.5392867878       -8.1962952772       19.1569968079
atom        15.9956000000        8.6807700000       13.9097000000 N         0.0000000000         0.0000000000       -16.0279802298       -1.8998663085       -4.2278747514
atom         1.3270600000       15.3392000000        7.0638200000 N         0.0000000000         0.0000000000        -1.1142164983      -19.1431835396      -16.5420459660
atom         1.2738300000       14.4843000000        6.3347500000 N         0.0000000000         0.0000000000         1.1442182713       18.9795458909       16.2429967794
atom         4.9164000000        1.9459800000        9.9379100000 N         0.0000000000         0.0000000000        -6.0027298292       23.2009406284      -10.3022998244
atom         4.6398300000        2.9435300000        9.4976000000 N         0.0000000000         0.0000000000         5.5676925909      -22.8979250275        9.9618338935
atom        16.9688000000        3.8733100000        4.0093000000 N         0.0000000000         0.0000000000         9.4777929908       -7.9513691968       -3.4116927756
atom        17.7098000000        3.0917000000        4.3106700000 N         0.0000000000         0.0000000000        -8.7342978623        7.3358601098       -5.0920457276
atom        15.4145000000       11.7616000000       12.1207000000 N         0.0000000000         0.0000000000       -11.6741948862       30.0054165303        7.1772035394
atom        15.1276000000       12.8281000000       12.3131000000 N         0.0000000000         0.0000000000         2.1356373514       -9.6067245147       -1.5561488404
atom        18.7981000000        8.2996500000        0.5987500000 N         0.0000000000         0.0000000000         8.4394456954       13.3293195986       -2.3402766545
atom        18.9482000000        9.3840800000        0.3714300000 N         0.0000000000         0.0000000000        10.4869225718      -10.9885125516        1.9998568447
atom        14.3498000000       13.3459000000        6.7396200000 N         0.0000000000         0.0000000000         8.8167393215       -7.5218664900       -3.4847024707
atom        15.1793000000       12.6644000000        6.4153200000 N         0.0000000000         0.0000000000       -14.3340676755        9.9346224469        5.0107342354
atom        17.5422000000        2.0903000000       10.2647000000 N         0.0000000000         0.0000000000        -2.4344328720      -23.8257892373       17.2483444306
atom        17.4983000000        1.1842100000       10.9233000000 N         0.0000000000         0.0000000000        -0.6026874223        7.9719161450       -6.1375879140
atom         0.2355900000        3.7470700000        3.3381600000 N         0.0000000000         0.0000000000         5.6278345002        0.1902264606      -12.6710101345
atom         0.6844600000        3.4092200000        2.3709700000 N         0.0000000000         0.0000000000         0.7606291156        1.9220505557        4.2235393684
atom         2.9182700000       15.1096000000       13.0173000000 N         0.0000000000         0.0000000000        19.0167656154      -11.5135320482        3.8166359987
atom         3.8689600000       14.5371000000       13.1952000000 N         0.0000000000         0.0000000000       -18.9283514743       11.5985101676       -3.2525749944
atom        13.3503000000       19.2838000000       14.3796000000 N         0.0000000000         0.0000000000         5.4588006832       -7.4703722863       19.8941041645
atom        13.6153000000       18.8829000000       15.3955000000 N         0.0000000000         0.0000000000        -5.9174519226        8.0220267159      -20.1381308836
atom         4.2220100000        0.7401500000        5.7842000000 N         0.0000000000         0.0000000000        -3.3849886610       -4.7362214718       14.6521418143
atom         3.8454700000        0.3055300000        6.7472500000 N         0.0000000000         0.0000000000         4.8674129295        5.8062770207      -11.9365086198
atom        16.9381000000        0.4955400000        4.9452900000 N         0.0000000000         0.0000000000        -0.2880031841      -14.9659958727       -0.5802033880
atom        17.3051000000       19.4487000000        4.6406700000 N         0.0000000000         0.0000000000       -17.8862453097       11.5932984838        9.1631087526
atom        14.1972000000        3.7286300000        3.9988800000 N         0.0000000000         0.0000000000        -3.5762297857       -6.3258772885      -18.1007545273
atom        13.7952000000        3.7991000000        2.9567400000 N         0.0000000000         0.0000000000        -2.4236174750       -2.1409412774        6.1524158463
atom        16.0611000000        4.1539100000        9.4592300000 N         0.0000000000         0.0000000000       -12.5730950477       15.6848162148       -5.2605491520
atom        16.2623000000        5.2059000000        9.1349800000 N         0.0000000000         0.0000000000        -6.8267293308      -13.9182398738        1.2703364083
atom        12.4196000000        0.5187300000        1.8572500000 N         0.0000000000         0.0000000000        -9.5859469609       16.3681924946       -4.9404456850
atom        11.8816000000        1.4683000000        1.5919000000 N         0.0000000000         0.0000000000         8.8599086673      -16.3803915245        4.6286901364
atom        14.5197000000        5.8995000000       11.4241000000 N         0.0000000000         0.0000000000        -7.2931058537        5.7485103479        5.2436688308
atom        14.2047000000        6.8638500000       11.8942000000 N         0.0000000000         0.0000000000        -3.5380415182       -7.6188360944       -2.2579735586
atom        13.2388000000        5.9071300000       14.8042000000 N         0.0000000000         0.0000000000         8.6479822311       -7.2857495389        0.0649615637
atom        14.1169000000        5.2133100000       14.7320000000 N         0.0000000000         0.0000000000       -25.8543564643       21.6159199819        1.9285766908
atom        16.9794000000       12.0745000000        9.0888900000 N         0.0000000000         0.0000000000         4.3551228554       20.1929227457        2.5331320175
atom        17.1423000000       13.1481000000        9.3655500000 N         0.0000000000         0.0000000000        -1.7529475571       -8.2431312502       -2.2298858111
atom        17.1189000000       14.4172000000        3.5476000000 N         0.0000000000         0.0000000000        10.5694332126       22.6107059020        0.1903187027
atom        18.0239000000       15.0274000000        3.2933800000 N         0.0000000000         0.0000000000        -9.9134067427      -10.0260575198        4.5253327602
atom        18.6557000000        2.6560600000        0.3174400000 N         0.0000000000         0.0000000000        -6.2782572568        1.6742188462       -0.8949106867
atom        17.6421000000        3.0935000000        0.1352600000 N         0.0000000000         0.0000000000        23.6162610981       -1.5965970416        8.5876558375
atom        13.3929000000        6.9461600000        8.7413800000 N         0.0000000000         0.0000000000         5.5961723677        2.8780486341       -2.1374591347
atom        14.4198000000        7.3794800000        8.6380600000 N         0.0000000000         0.0000000000       -12.5373511983       -2.7903263095       -0.9083549862
atom        16.9361000000        7.8290400000       10.2370000000 N         0.0000000000         0.0000000000         2.7502009559       -7.9802410029       12.0929744381
atom        17.0434000000        7.5017400000       11.3021000000 N         0.0000000000         0.0000000000         2.3592093644       -1.3457213398      -13.1556275510
atom        14.0922000000        1.0982100000        4.9427100000 N         0.0000000000         0.0000000000       -15.3699936133      -14.9379542463        5.0195664252
atom        13.2733000000        0.4133900000        5.2874000000 N         0.0000000000         0.0000000000         9.4650866288        8.8407222914       -3.6786416794
atom        12.5870000000       15.4702000000       15.7219000000 N         0.0000000000         0.0000000000        -0.9947397990       -1.2565923217      -23.2936901525
atom        12.5451000000       15.4104000000       14.6001000000 N         0.0000000000         0.0000000000         1.1761571303        1.0942460637       23.2172674964
atom        10.7051000000        6.8351800000        7.2481800000 N         0.0000000000         0.0000000000       -15.1852325027       -5.2751926000        3.8183655398
atom         9.7191800000        6.3875200000        7.5414600000 N         0.0000000000         0.0000000000        13.1019195347        5.7718937436       -3.5885902394
atom        13.3554000000        4.2170300000        6.4588000000 N         0.0000000000         0.0000000000       -13.9585266512       -4.0122816881       20.3271581957
atom        12.6132000000        4.0909400000        7.2889100000 N         0.0000000000         0.0000000000         5.2816034323        0.1514616793       -5.1413953004
atom         1.3246600000       17.7239000000        2.0556100000 N         0.0000000000         0.0000000000        11.6380128863       -4.2528032038      -18.5327708337
atom         2.3610300000       17.8462000000        1.6455000000 N         0.0000000000         0.0000000000       -26.8678906100       -6.3431035178       -3.4435624530
atom        16.3552000000        2.3106300000        7.3486000000 N         0.0000000000         0.0000000000       -10.4795662570        2.4153848593       -8.8689253416
atom        15.8823000000        2.7722900000        6.4446000000 N         0.0000000000         0.0000000000         3.1036960964       -4.4751530078       15.7352726938
atom        16.6857000000        0.5766800000       16.0253000000 N         0.0000000000         0.0000000000         4.4449667504      -24.4766270838       -9.1070716209
atom        16.9929000000       19.5636000000       15.5712000000 N         0.0000000000         0.0000000000        -3.2368015795       10.8147974434        4.3463367866
atom         1.2457600000        8.1651700000       10.9745000000 N         0.0000000000         0.0000000000        -9.6422608192       -7.7726499497       -0.1344660555
atom         0.3567100000        7.4841000000       10.9216000000 N         0.0000000000         0.0000000000        12.8541800674       10.6765955792        1.0202678257
atom        14.5544000000        2.6961600000       12.0413000000 N         0.0000000000         0.0000000000         3.1003292564        3.2046321150        8.2534162546
atom        14.8970000000        3.2124700000       12.9754000000 N         0.0000000000         0.0000000000       -13.7337324291      -17.7751165288      -22.2458419114
atom         6.9521200000       14.6053000000       16.1592000000 N         0.0000000000         0.0000000000        -3.9837788507       -3.6263634171        0.1645831312
atom        19.8001000000        8.1924200000        5.4647600000 N         0.0000000000         0.0000000000         2.7844689303        7.4981602467        3.5240437656
atom        19.2625000000        9.0533500000        5.9341000000 N         0.0000000000         0.0000000000         6.0506957691       -7.4012137028       -5.2817187350
atom        18.8895000000        9.9537800000        8.7862200000 N         0.0000000000         0.0000000000        23.2548100685        4.8021515786        4.4436984203
atom        19.9395000000       10.3314000000        8.6776100000 N         0.0000000000         0.0000000000       -10.4933103436       -2.7529682217        0.9929180158
atom         3.0880000000       13.2476000000        9.7172700000 N         0.0000000000         0.0000000000        14.9847210377       19.2121806993       -4.7733258936
atom         3.7699500000       14.1158000000        9.5027600000 N         0.0000000000         0.0000000000       -15.1660461267      -19.2674337723        4.6190508274
atom        17.2930000000       10.8132000000       14.9615000000 N         0.0000000000         0.0000000000         1.5887333947       22.0373745573       -0.3159525683
atom        17.2837000000       11.9151000000       14.7619000000 N         0.0000000000         0.0000000000        -0.1241810510       -7.3916666360        2.6033975073
atom        15.5686000000        5.6742000000        5.6706900000 N         0.0000000000         0.0000000000         7.4167565122        3.4908826975        9.1346289758
atom        16.0357000000        6.3540900000        6.4248300000 N         0.0000000000         0.0000000000        -1.0055551961       -3.7923071206       -1.9076607738
atom        15.9017000000       14.3965000000        0.1611700000 N         0.0000000000         0.0000000000         1.9144636354       -5.3984973502        7.8617789677
atom        16.2051000000       13.8124000000        1.0689900000 N         0.0000000000         0.0000000000       -13.1762436809       17.2356150081      -22.9349372070
atom        16.5980000000        5.3430500000       13.4367000000 N         0.0000000000         0.0000000000         7.8191630750       -8.4026641213        9.7349181011
atom        16.7381000000        4.5709400000       14.2351000000 N         0.0000000000         0.0000000000         9.5368049331       13.7956730611      -17.6162524135
atom        15.6874000000        0.7169900000        2.4035400000 N         0.0000000000         0.0000000000        -3.6187303757        8.5463313355       -3.6070847990
atom        15.9273000000        1.7900500000        2.1990500000 N         0.0000000000         0.0000000000        -2.6737091182       -9.3554567836        2.5341928027
atom         1.3911800000        2.9355900000       11.5088000000 N         0.0000000000         0.0000000000        -0.3344010067      -11.8188537039      -12.6768213926
atom         1.2920900000        2.1539300000       10.7093000000 N         0.0000000000         0.0000000000         2.0416194972       11.5989483180       12.8537649775
atom         0.0389800000        1.9076700000        5.5779500000 N         0.0000000000         0.0000000000        -4.4074241783      -16.0735709332       -1.0759590491
atom        19.7726000000        0.8681700000        5.2328800000 N         0.0000000000         0.0000000000         8.7512704256       14.7908279500       11.2451533904
atom         4.8136300000       19.0907000000        2.0449800000 N         0.0000000000         0.0000000000         4.0063320667       12.8271992262       13.1208291841
atom         4.5062100000       19.1387000000        3.1204300000 N         0.0000000000         0.0000000000        15.6480807618       12.3376237919      -13.5917947561
atom         4.5415300000       16.4974000000        2.6429200000 N         0.0000000000         0.0000000000        10.8552456446      -30.6356613075       -2.7083921824
atom         5.0923100000       15.5262000000        2.5409300000 N         0.0000000000         0.0000000000        -3.6645747451        8.2831182405        0.0513327799
atom         6.4091500000       11.3319000000        9.2930200000 N         0.0000000000         0.0000000000        -5.0094889658        6.2959216366      -20.4535299988
atom         6.1632300000       11.6405000000        8.2404500000 N         0.0000000000         0.0000000000         5.1550010237       -6.6860369273       20.6158070751
atom        18.2455000000        0.1794400000        7.4597200000 N         0.0000000000         0.0000000000         2.6369275441      -17.6574846734       16.4066574887
atom        18.3994000000       19.2594000000        8.1312900000 N         0.0000000000         0.0000000000        -1.8462274738       10.4342061590       -8.0199282060
atom        19.1037000000       16.0407000000        0.8421900000 N         0.0000000000         0.0000000000         2.3585636690       -7.0434754215      -16.7529346776
atom        19.0424000000       15.5207000000       16.2872000000 N         0.0000000000         0.0000000000         0.6078299245        5.0522432218       10.3317942653
atom        18.3553000000        6.1924600000        2.7300400000 N         0.0000000000         0.0000000000         5.8857667297        3.1363959535        2.5307337205
atom        19.2059000000        6.8631600000        3.0060500000 N         0.0000000000         0.0000000000        -2.7106290555       -4.1807389913       -2.7476412351
atom        12.0448000000       10.3195000000       12.4493000000 N         0.0000000000         0.0000000000        -3.3664710410       19.8149373032       -5.3318062453
atom        11.8626000000       11.3881000000       12.1535000000 N         0.0000000000         0.0000000000         3.3636576541      -20.2480835765        5.4117341047
atom        15.0371000000       10.2285000000        9.6796100000 N         0.0000000000         0.0000000000       -13.4578129722       -4.4603481359        4.9767199270
atom        14.8617000000        9.5639000000       10.5622000000 N         0.0000000000         0.0000000000        -9.7379159723        4.0709016011      -19.3360389026
atom        17.6735000000       14.6537000000        6.2815100000 N         0.0000000000         0.0000000000         1.4659590371       15.3895720186       18.4141012537
atom        17.7026000000       15.4454000000        7.0750800000 N         0.0000000000         0.0000000000        -0.5512162791       -8.5711444851       -9.0933736554
atom         0.0286000000        5.5780700000        0.2844300000 N         0.0000000000         0.0000000000         0.8624414351       -1.9351258864       -7.7928509897
atom        19.3532000000        5.3486000000       15.8334000000 N         0.0000000000         0.0000000000        12.0934356490        1.2855102489        3.8847568576
atom        18.9002000000        5.0403300000       11.7195000000 N         0.0000000000         0.0000000000         2.3384318106       -2.3919092215       -2.6991218421
atom        18.4306000000        4.6595400000       10.7792000000 N         0.0000000000         0.0000000000         9.9175576414        4.0341892087       15.6414393240
atom        19.3731000000        2.7701800000        8.2240200000 N         0.0000000000         0.0000000000         0.6836760669        7.2067902225        2.4988640431
atom        18.6203000000        3.5925800000        8.3155100000 N         0.0000000000         0.0000000000        14.3108687642      -10.0028355479      -11.1673471014
atom        15.1318000000        2.7874700000       15.6744000000 N         0.0000000000         0.0000000000       -13.4574901245        1.5733981303       15.8820992030
atom        14.9463000000        3.4222400000        0.1413700000 N         0.0000000000         0.0000000000        -7.1180071127      -10.0962999490      -10.3858481898
atom         6.8021200000       17.2246000000        6.2559900000 N         0.0000000000         0.0000000000        -0.6557036222       -8.7549370528        4.5664727779
atom         2.5300700000       17.6204000000        4.4081200000 N         0.0000000000         0.0000000000        12.2301385777      -10.4868995112       24.6167660341
atom         3.4014900000       17.4385000000        5.0868100000 N         0.0000000000         0.0000000000        -8.8941997022       -0.3959957305        1.4842229912
atom         7.7841400000       18.2937000000        1.9998300000 N         0.0000000000         0.0000000000        12.2364341073      -11.7643616289        8.0886486391
atom         8.4541200000       17.5646000000        2.5295600000 N         0.0000000000         0.0000000000       -10.7452468306       11.4523754748       -8.2484121157
atom         1.8006300000        0.0899900000        3.4077700000 N         0.0000000000         0.0000000000         9.3520207619       20.0087381487        1.3424006209
atom         2.3187100000        1.0812100000        3.4492400000 N         0.0000000000         0.0000000000        -2.6405019290       -4.5628061508       -2.1302873043
atom        14.9145000000       11.4619000000        3.4868600000 N         0.0000000000         0.0000000000         1.9924082877        5.6651003457       -0.3579688868
atom        15.7447000000       12.1260000000        3.1348700000 N         0.0000000000         0.0000000000       -21.6727411722      -15.4877177109        9.1248051823
atom        18.9166000000        2.8745900000       13.7699000000 N         0.0000000000         0.0000000000         5.4794859948      -12.9223239868       -3.0483507812
atom        19.0438000000        1.7660600000       13.6758000000 N         0.0000000000         0.0000000000        -0.7039693492        8.1634801174        0.6495464559
atom        12.1756000000        6.7947300000        4.3852100000 N         0.0000000000         0.0000000000         7.5063698018       -3.8068583264        1.9969742762
atom        13.1068000000        6.2096700000        4.5992200000 N         0.0000000000         0.0000000000       -19.9167496227       15.9829429795       -2.8529126368
atom        17.4150000000       17.7604000000        2.3741400000 N         0.0000000000         0.0000000000       -13.8719573539       -0.9287635712       -7.1397532095
atom        16.3573000000       17.8558000000        2.0205000000 N         0.0000000000         0.0000000000         4.9202215844       -4.0495936548        0.1818785422
atom        19.0131000000       17.3811000000        4.6800100000 N         0.0000000000         0.0000000000        14.9042627857        2.5885465144        2.6142590254
atom        19.8242000000       18.1071000000        4.4158800000 N         0.0000000000         0.0000000000        -9.9704124174      -17.8508243079       12.1355903308
atom        16.5440000000        9.1647000000        7.4528800000 N         0.0000000000         0.0000000000        -6.0720037154       11.1858416609       -5.6024217762
atom        16.7016000000       10.1949000000        7.0477600000 N         0.0000000000         0.0000000000        -5.2843476375      -11.3946318626       -0.2465633793
atom        18.4431000000        7.1997600000        7.9358600000 N         0.0000000000         0.0000000000         6.1736776716       -8.3799725421        5.1845185252
atom        18.8624000000        6.3588400000        8.5417600000 N         0.0000000000         0.0000000000         3.8048520587        8.9279603445       -4.1904244215
atom         3.1997000000        3.9130200000        5.4222500000 N         0.0000000000         0.0000000000       -12.9874930955       -2.4500448630        1.0629759606
atom         2.1044900000        3.6731100000        5.4669800000 N         0.0000000000         0.0000000000        27.6362450092        5.3882123458        0.2133792508
atom         7.7556100000        1.3086600000        7.6308900000 N         0.0000000000         0.0000000000        -2.0961576932       22.1121599145       -6.1034813635
atom         7.6662900000        2.3962900000        7.3608900000 N         0.0000000000         0.0000000000         1.9590627353      -22.1611405185        5.6439999443
atom         4.0690200000       18.1189000000       16.0480000000 N         0.0000000000         0.0000000000         1.4898036438       -0.1087766050      -10.7148991494
atom         0.3452100000       10.6067000000        3.0113800000 N         0.0000000000         0.0000000000        22.3528428541       -5.0447024226       -3.3282827735
atom         1.3841500000       10.2181000000        2.8474800000 N         0.0000000000         0.0000000000       -10.0942014391        2.9258070290        1.9287611752
atom         9.9351000000       18.0324000000       15.1387000000 O         0.0000000000         0.0000000000         7.5825618524       11.8980666863      -10.1640979602
atom         2.7275700000        6.0281600000        8.3692300000 O         0.0000000000         0.0000000000         3.1648987908       -0.2271002768        2.5792761741
atom        11.3052000000        4.0849300000       12.4374000000 O         0.0000000000         0.0000000000         4.7231461411      -11.9722985903       15.7641906211
atom        11.5210000000        2.6401600000       14.3017000000 O         0.0000000000         0.0000000000         1.4648751914        9.5457524258      -10.8006152064
atom         2.4740200000       14.4288000000        0.2930200000 O         0.0000000000         0.0000000000        -5.2477505478        1.3751696596       17.0289002557
atom         1.7092700000       14.1490000000        2.5187300000 O         0.0000000000         0.0000000000         7.0077776932        5.3755751654      -18.6815113684
atom         2.2098800000        2.8477000000       15.4007000000 O         0.0000000000         0.0000000000       -19.7516822200       -4.8568281379        4.3827955130
atom        17.8070000000        9.5502800000        3.0705500000 O         0.0000000000         0.0000000000        -8.0990028251       -6.8930053457        5.0059607019
atom        13.6768000000       11.9617000000       15.3712000000 O         0.0000000000         0.0000000000         3.7563326657        3.4683756027       -3.4339923256
atom         5.7913900000        7.8233800000        7.6639400000 O         0.0000000000         0.0000000000        -9.5161196216        2.2310849596      -19.5594033707
atom         7.2409900000        7.9246100000        9.4069000000 O         0.0000000000         0.0000000000         4.7099093865        2.2322379870       -1.4887659191