begin
comment generated by PY
lattice        19.9650000000         0.0000000000         0.0000000000
lattice         0.0000000000        19.9650000000         0.0000000000
lattice         0.0000000000         0.0000000000        16.4367122000
atom        19.4648000000        3.9337700000       14.1949000000 N         0.0000000000         0.0000000000        -0.5775053039       -8.5135853573       -3.9917808609
atom        18.6634000000        3.2316300000       13.8529000000 N         0.0000000000         0.0000000000        21.1815976206        6.4494126442        0.2245174954
atom        17.9083000000        6.8071700000       15.9319000000 N         0.0000000000         0.0000000000         6.2177233183       -0.2653116049        0.4616260501
atom        18.8379000000        6.6579400000       15.3291000000 N         0.0000000000         0.0000000000        -5.4674253282        1.2567768061        6.6231969340
atom        18.0558000000       11.7771000000       14.3220000000 N         0.0000000000         0.0000000000        -2.1480669868        3.8420717832       -4.3726258113
atom        17.6789000000       11.8346000000       13.2696000000 N         0.0000000000         0.0000000000         5.1603049498       -5.0775175824       20.3299024009
atom         2.2802900000       10.6784000000        1.9041400000 N         0.0000000000         0.0000000000         8.2364667518        8.6850405318        1.1910311837
atom        17.0187000000       11.1447000000       10.7163000000 N         0.0000000000         0.0000000000       -18.9090267351      -14.3269650267       -9.5255052646
atom        16.3044000000       10.3593000000       10.3615000000 N         0.0000000000         0.0000000000        -0.1385477725        9.7233878271        1.1188747290
atom        16.4233000000        8.4807400000       13.9877000000 N         0.0000000000         0.0000000000        -2.4940905097        4.1348946219        3.0173343441
atom        14.1693000000        8.5923300000       11.7727000000 N         0.0000000000         0.0000000000        -5.0750501038       -4.7882230076        6.4448235951
atom        13.9853000000        7.7424400000       12.4787000000 N         0.0000000000         0.0000000000         3.4651932470       15.9857333058      -18.5252761556
atom        10.0419000000        3.3767800000       12.4865000000 N         0.0000000000         0.0000000000       -14.2169892733        8.5084889762       13.1011585366
atom         9.3292700000        3.8688500000       13.2025000000 N         0.0000000000         0.0000000000        13.7325794017       -8.9384298333      -13.4160733803
atom        16.6464000000        7.5498500000       10.0476000000 N         0.0000000000         0.0000000000        -4.5197751682       -7.3110700207       -1.8154647028
atom        16.4359000000        6.6883200000       10.7267000000 N         0.0000000000         0.0000000000        -0.7219104555       -0.5483106501       -2.0371457508
atom         6.2345300000        1.3324300000        0.5675900000 N         0.0000000000         0.0000000000         6.8689070731      -22.4790993545        5.9839124220
atom         6.5421300000        0.2867300000        0.8436000000 N         0.0000000000         0.0000000000        -6.4701210163       22.6837847786       -5.8526056616
atom        16.2857000000       10.2113000000        6.7458900000 N         0.0000000000         0.0000000000         4.8440756549       -9.4767552661        8.6232613236
atom        16.6813000000        9.4169000000        7.4318200000 N         0.0000000000         0.0000000000        -5.9991323837        9.1952320960      -11.5650493124
atom         3.0069200000       19.2333000000        1.1808200000 N         0.0000000000         0.0000000000        -3.1114444405       21.6859548662        7.3811279655
atom         2.8563800000        0.3249200000        1.5336700000 N         0.0000000000         0.0000000000         3.0759081360      -21.6301022189       -7.2059600428
atom        15.7726000000        5.6933400000       13.4168000000 N         0.0000000000         0.0000000000        21.1972326721       -4.3695126373       -2.9354924592
atom        16.7242000000        5.3555300000       13.8979000000 N         0.0000000000         0.0000000000       -12.7748287217        1.2398964850       -8.7091157439
atom        18.8597000000        9.0865900000        9.5846500000 N         0.0000000000         0.0000000000        11.8181388269       -9.1712952471       -3.7677015159
atom        19.6186000000        8.3695100000        9.9847300000 N         0.0000000000         0.0000000000        -0.5609478304        2.2740237000       -7.8637160538
atom         8.7219500000       17.9461000000        5.5806600000 N         0.0000000000         0.0000000000        19.9759691100        8.0261314934        6.0574986307
atom         9.7251900000       18.3577000000        5.8763800000 N         0.0000000000         0.0000000000       -20.0188386687       -8.2162426512       -6.0524944918
atom        19.1801000000        4.1179200000        9.9725100000 N         0.0000000000         0.0000000000       -15.4892166466        1.9472326741       -0.0037588693
atom        18.0690000000        4.2727700000        9.9864700000 N         0.0000000000         0.0000000000        16.5693265943       -4.1048236672       -1.8568353259
atom         4.6637000000       19.8241000000       14.0636000000 N         0.0000000000         0.0000000000        -3.7297899749      -19.5159803588        8.6710427791
atom         4.4466300000       18.8190000000       14.5170000000 N         0.0000000000         0.0000000000         3.9499259662       19.2837606403       -9.1958316702
atom        16.7173000000        1.6377500000       14.9243000000 N         0.0000000000         0.0000000000        -8.9588614789      -19.9684744319       11.3814181686
atom        16.4463000000        0.6193600000       15.3085000000 N         0.0000000000         0.0000000000         3.6784341345       11.1823133971       -5.0581236615
atom        18.9322000000       11.8213000000        8.9811800000 N         0.0000000000         0.0000000000         5.9065442834        6.9334996680      -23.0147267032
atom        19.1549000000       11.9145000000        7.8869800000 N         0.0000000000         0.0000000000        -1.1904085489       -0.8075803914        6.4949341660
atom        13.1680000000        5.2190500000       13.1421000000 N         0.0000000000         0.0000000000        -1.6482065481      -16.5456203510      -14.7430464945
atom        13.0697000000        4.4229300000       12.3620000000 N         0.0000000000         0.0000000000        -0.8982775267       -0.0993217803       -0.4185028253
atom         6.9896900000        0.7033900000        8.0369300000 N         0.0000000000         0.0000000000        -8.8989962962      -16.3014783292       -8.0422046954
atom         6.4740100000       19.7716000000        7.5994000000 N         0.0000000000         0.0000000000         9.1233523678       16.2994259404        8.4720763709
atom        18.3470000000       13.4384000000       11.2055000000 N         0.0000000000         0.0000000000         8.5547023144       27.4546662541       -0.8880617039
atom        18.5699000000       14.5372000000       11.2256000000 N         0.0000000000         0.0000000000        -1.4789882468       -8.6453763892       -0.2624751575
atom        13.3884000000        0.9982500000       13.5119000000 N         0.0000000000         0.0000000000       -11.2303485186        8.7153190313       11.1958038177
atom        12.6927000000        1.5585300000       14.1916000000 N         0.0000000000         0.0000000000        10.6998636721       -8.9843203239      -11.3332216233
atom        11.3576000000        7.1018300000       13.2122000000 N         0.0000000000         0.0000000000       -24.5966802968       14.9522517861       -8.6128610165
atom        10.4310000000        7.5529200000       12.7666000000 N         0.0000000000         0.0000000000        12.2146188288       -5.9165525613        5.6031827743
atom        11.7784000000        5.4749500000       15.4070000000 N         0.0000000000         0.0000000000       -20.4436600842      -11.4916706487       19.0466751462
atom        11.0164000000        5.0166700000       16.0916000000 N         0.0000000000         0.0000000000         8.3119439255        5.9928599146       -6.5000766682
atom        12.9154000000        8.6944500000        4.7860200000 N         0.0000000000         0.0000000000         2.1702281734        4.4327446600       22.7033862445
atom        13.0317000000        8.9169500000        5.8819100000 N         0.0000000000         0.0000000000        -2.1208786007       -4.9501080546      -22.6671581235
atom         3.0174800000       16.8043000000        8.3999800000 N         0.0000000000         0.0000000000         7.2493599942       -4.7653238834       -9.6759522798
atom         3.6173600000       16.3956000000        7.5453400000 N         0.0000000000         0.0000000000       -13.3777928706        8.4355023417       13.4942486380
atom        14.5636000000        3.5337200000       16.1016000000 N         0.0000000000         0.0000000000        -1.3079251016        6.4166897266       -3.7371924108
atom        14.4118000000        4.3760900000       15.3788000000 N         0.0000000000         0.0000000000         1.0069618895      -25.9823194452       15.6504329377
atom         8.5242700000        1.7942200000        5.2681200000 N         0.0000000000         0.0000000000       -11.9808771142       -8.9337024210      -18.6684129771
atom         7.9478100000        1.3589400000        4.4066900000 N         0.0000000000         0.0000000000        12.4657712572        9.7445112891       18.2411471436
atom         0.3707200000        9.0029400000       14.2761000000 N         0.0000000000         0.0000000000         3.3319263401        5.1757785775        4.1929380212
atom        19.7351000000        9.4871200000       15.0855000000 N         0.0000000000         0.0000000000         7.2007252984       -0.0071487699       -6.3899394909
atom         2.4018700000        6.8183000000        7.1373200000 N         0.0000000000         0.0000000000        -6.1196237471       21.7659980283       -5.6808507000
atom         2.1287400000        7.8763000000        6.8730600000 N         0.0000000000         0.0000000000         5.5538332016      -21.5728198176        5.5703214934
atom        13.8975000000        7.1026200000       15.0063000000 N         0.0000000000         0.0000000000         8.2328001247       14.2139914020       21.6637706190
atom        14.8064000000        6.9816400000       15.6490000000 N         0.0000000000         0.0000000000       -14.2390582177        6.4191341446        1.5219269872
atom        16.1833000000       14.8386000000        8.7889000000 N         0.0000000000         0.0000000000       -10.0043575441      -19.0571676955       -7.9308222485
atom        15.6859000000       13.9034000000        8.4129100000 N         0.0000000000         0.0000000000        10.2713525690       18.7095991159        7.6068215489
atom        16.3356000000        2.8964600000       12.4833000000 N         0.0000000000         0.0000000000       -14.8278401296       -4.9100288222      -18.0413736161
atom        15.6844000000        2.5889900000       11.6246000000 N         0.0000000000         0.0000000000         5.7642837627        2.0432567961        6.7626210073
atom         1.5231200000       19.6289000000        7.3771000000 N         0.0000000000         0.0000000000       -19.5014291530       -6.8220480395       -3.7671941838
atom         0.4806700000       19.2635000000        7.1726000000 N         0.0000000000         0.0000000000        19.3226176637        6.9978847181        3.8244996456
atom        17.9610000000        3.6526200000        1.0579100000 N         0.0000000000         0.0000000000        -2.3610772688        3.3333791546      -12.5712732644
atom        17.7104000000        3.9246100000       16.4357000000 N         0.0000000000         0.0000000000        -0.3394743273       -3.9513095991       24.1831124287
atom         4.7158200000       18.7207000000       10.2219000000 N         0.0000000000         0.0000000000         3.8092105023      -10.9583262942        7.2650872879
atom         5.0509900000       17.8105000000       10.7863000000 N         0.0000000000         0.0000000000        -7.2999087154       31.1887454910      -19.1405546371
atom         5.3616300000       15.1841000000       10.3552000000 N         0.0000000000         0.0000000000         4.5293222351      -25.7800784391      -24.0787865095
atom         5.4439500000       14.3788000000        9.5757600000 N         0.0000000000         0.0000000000        -1.5305516321       12.5943568730       12.3180453867
atom         0.6049900000        8.9299700000        1.4677100000 N         0.0000000000         0.0000000000       -19.9552837984      -23.2960653889       -4.1895481206
atom        19.9080000000        8.0380600000        1.3053200000 N         0.0000000000         0.0000000000        11.8178390397       14.9125415224        8.3308535748
atom         0.3598700000       15.7858000000        6.9789100000 N         0.0000000000         0.0000000000       -12.4515428991      -10.6147933105        2.1594358369
atom        19.4943000000       15.0528000000        7.1552500000 N         0.0000000000         0.0000000000        11.2741174387       10.9622004663       -2.5557082940
atom        19.0430000000        6.1691400000       12.4356000000 N         0.0000000000         0.0000000000         7.5514531731        4.1853511009       -4.8493565204
atom        19.9405000000        6.8344300000       12.4815000000 N         0.0000000000         0.0000000000        -1.2059974794       -8.4565796826       -2.4667868209
atom         8.9330500000        7.9787400000        6.8741200000 N         0.0000000000         0.0000000000        -4.7115005643       -3.4747403139       10.0451055324
atom        17.3984000000       14.9919000000       14.8610000000 N         0.0000000000         0.0000000000        -7.2705526378        9.8656483478      -12.6778360568
atom        16.9358000000       15.5894000000       14.0308000000 N         0.0000000000         0.0000000000         7.2223560924       -9.2282086796       12.8622512592
atom         1.5021800000        4.6316000000        0.6486700000 N         0.0000000000         0.0000000000        -3.8072042346       12.8531884638       -7.0615779517
atom         1.2896400000        5.5980700000        0.1199400000 N         0.0000000000         0.0000000000         7.8243978194      -14.6628649691        7.7470988625
atom         6.2567700000       16.4190000000       12.5053000000 N         0.0000000000         0.0000000000        22.8104794294        4.3737327176       14.9224114370
atom         3.6711600000       16.0995000000       12.2871000000 N         0.0000000000         0.0000000000       -35.5470968231       -6.6891270408       14.8930092383
atom         2.6363900000       15.9415000000       12.6967000000 N         0.0000000000         0.0000000000        17.8890817571        2.7419914008       -6.8507814823
atom         8.9693300000       17.9054000000        9.5382000000 N         0.0000000000         0.0000000000       -13.0750309357      -19.5030664519       -9.6343971723
atom         8.4007000000       17.0417000000        9.0954100000 N         0.0000000000         0.0000000000        12.6849848266       19.5746925140       10.1383393280
atom         1.0459400000       18.1896000000       10.6273000000 N         0.0000000000         0.0000000000         8.1061054739       14.6925900155        7.2976949028
atom         1.5780000000       19.0721000000       11.0728000000 N         0.0000000000         0.0000000000        -8.8479633035      -14.5467089888       -6.7972348898
atom        15.6346000000       13.1088000000       12.0606000000 N         0.0000000000         0.0000000000       -23.8805810994       15.2123747677       -1.1314196671
atom        14.6772000000       13.6862000000       11.9643000000 N         0.0000000000         0.0000000000        11.2219314186       -7.6524353129        1.2131923704
atom        12.0428000000        6.0213500000        9.8022100000 N         0.0000000000         0.0000000000         5.6086250637       17.1929529942       -6.8017316967
atom        12.3968000000        7.0277200000        9.4515300000 N         0.0000000000         0.0000000000        -6.0757856453      -17.4663357909        5.2617252399
atom        18.5724000000        0.7218300000       12.2456000000 N         0.0000000000         0.0000000000        -5.1804829293      -19.0722492939       -1.4873822862
atom        18.1675000000       19.6418000000       12.3099000000 N         0.0000000000         0.0000000000         6.1290093901       16.4380890156       -0.5441597514
atom         0.3872600000        0.0734000000       15.2013000000 N         0.0000000000         0.0000000000        -7.2853575096       14.8076621501       10.0481495248
atom        19.9105000000        0.9230200000       15.7878000000 N         0.0000000000         0.0000000000         7.9554970348      -15.1988843471       -9.6940778706
atom        16.4471000000        9.3865500000        0.3888900000 N         0.0000000000         0.0000000000         4.8957774035        5.3589254498        1.0107207588
atom        17.4251000000        9.9002000000        0.2096100000 N         0.0000000000         0.0000000000       -10.9521691279       -1.8006367704        7.8098004925
atom         2.7736400000       18.0076000000        4.5199100000 N         0.0000000000         0.0000000000       -15.6982835748      -14.3698576460       -4.5766194190
atom         1.9530400000       17.2781000000        4.2799700000 N         0.0000000000         0.0000000000        15.7651591641       14.1649877375        4.4572119014
atom         5.3977100000       15.1596000000        6.0623700000 N         0.0000000000         0.0000000000         7.1039862995        0.4164273760       -5.1209175338
atom        19.7338000000       11.0451000000       11.4334000000 N         0.0000000000         0.0000000000        21.1631261216       -2.4425271243       11.9385610086
atom         0.7687100000       10.9210000000       11.9235000000 N         0.0000000000         0.0000000000        -5.8752972409        2.7036878306       -4.0869748031
atom         9.6868100000        4.4637200000        3.1316500000 O         0.0000000000         0.0000000000         4.7061966383       13.5616084988        0.4243140834
atom        10.4346000000        6.6803300000        2.7755000000 O         0.0000000000         0.0000000000        -5.0390756489      -13.7671241027        3.3096959718
atom         3.5351200000        7.2724600000       13.9139000000 O         0.0000000000         0.0000000000        21.6236683260       -0.7553021290       -6.7087054460
atom         2.6316600000       10.3091000000        2.9389100000 O         0.0000000000         0.0000000000         2.5606201907        1.7857627170        2.2873065757
atom         2.5415200000       12.9530000000        7.7467300000 O         0.0000000000         0.0000000000        -2.9834122780        6.5870149342       10.4663525629
atom         1.8735400000       13.8640000000        9.8234600000 O         0.0000000000         0.0000000000         4.2479835493       -3.7526660386      -11.6271052471
atom        18.0761000000        9.0134200000       12.2995000000 O         0.0000000000         0.0000000000        -4.3151128046       -3.0597426919        7.7386587019
atom         6.3358900000       10.4611000000        5.7475600000 O         0.0000000000         0.0000000000         9.2980129585        6.6023732591        1.9564107722
atom         8.3245100000       11.7399000000        5.7942600000 O         0.0000000000         0.0000000000       -12.7062005308       -7.4916341116        1.7588971785
atom         5.0900900000        8.3680500000        0.7675800000 O         0.0000000000         0.0000000000         0.8294648514      -15.6692272843        0.7800922182
atom         5.2691700000        6.0209500000        0.5078900000 O         0.0000000000         0.0000000000        -1.0246723904       17.9278695988        5.3109133888
atom        11.6439000000        5.4627400000        6.1328700000 O         0.0000000000         0.0000000000         1.9413291738       -7.3300949728       -2.9195345600
atom        12.3403000000        3.2528800000        5.6556800000 O         0.0000000000         0.0000000000        -6.1533613288       18.2828636749        4.3305864323
atom         1.3753600000       13.5588000000        4.1926700000 O         0.0000000000         0.0000000000        -8.2777681933        4.4087616900       -7.4457666816
atom         8.3399100000        0.3930000000       13.9760000000 O         0.0000000000         0.0000000000        -7.1417594771        3.1577038998      -16.5148114588
atom         7.5254100000        0.8424400000       11.7987000000 O         0.0000000000         0.0000000000         4.4549058466       -3.6942767310       13.1861366560
atom         9.6699900000        3.2525800000        8.4350600000 O         0.0000000000         0.0000000000         5.7214142040      -11.9975037693       -2.9459158269
atom        10.6439000000        1.1025200000        8.2729300000 O         0.0000000000         0.0000000000        -7.8667831066       13.4728484495       -0.0839403948
atom        19.3998000000        9.5002100000        4.8472400000 O         0.0000000000         0.0000000000        -8.2384960801       -5.4921692962       -6.5997904778
atom        17.5856000000        8.3340400000        3.8686100000 O         0.0000000000         0.0000000000        17.0606315697       11.2087869062        8.8359718185
atom        10.5610000000        8.8887200000       16.1984000000 O         0.0000000000         0.0000000000       -15.9069354132      -12.5771537041       -4.9854829353
atom         8.5895700000        7.6027500000       15.9447000000 O         0.0000000000         0.0000000000        11.4892723517        4.9883193827       -0.5389019465
atom         2.9492300000        6.6900700000        3.3759500000 O         0.0000000000         0.0000000000        -8.9356856281       -1.6986169060        0.3658094731
atom         0.7388100000        6.0439100000        3.9168100000 O         0.0000000000         0.0000000000        17.7937263910        6.5889058991       -5.2476121845
atom         5.9754400000        4.5509700000        3.9749500000 O         0.0000000000         0.0000000000         7.2419806188       20.9862978395       -0.4964244171
atom         6.7623100000        6.7783300000        3.8246000000 O         0.0000000000         0.0000000000        -2.1040213401       -9.2568268197        0.2673870542
atom         9.4208000000        8.3050400000        5.8775100000 O         0.0000000000         0.0000000000         5.1478061327        3.1322450548      -10.3202178702
atom        14.7297000000       12.6065000000       15.5790000000 O         0.0000000000         0.0000000000        -4.3995835919       11.6948801977       -3.5946090425
atom        13.6600000000       14.6796000000       15.1898000000 O         0.0000000000         0.0000000000         7.3478746553      -11.7768604459        0.9639770280
atom        18.6262000000        6.3727000000        7.0025600000 O         0.0000000000         0.0000000000        -0.0316390719       -7.2496367207       -1.7423858261
atom        18.5592000000        4.1048700000        6.3335200000 O         0.0000000000         0.0000000000         0.4279807106       18.8097741365        6.9626943218
atom         7.0856900000       17.2306000000       12.5904000000 O         0.0000000000         0.0000000000        -3.0103931191       -6.5691430095        1.9281616009
atom        15.1060000000        4.9497600000        7.6425200000 O         0.0000000000         0.0000000000         1.2502506710        6.5132673016      -16.7529577382
atom        15.2743000000        5.7629800000        5.4218400000 O         0.0000000000         0.0000000000        -1.5019334920       -6.7283530329       19.5228062810
atom         8.2401700000        9.8092500000        2.5596100000 O         0.0000000000         0.0000000000        -6.4864478843       18.3535211940      -10.7947347666
atom         5.5546300000       14.0159000000        5.9486100000 O         0.0000000000         0.0000000000        -0.3290740201       -4.5443577124        0.2347102577
atom         3.0796100000        6.4675400000       14.1550000000 H         0.0000000000         0.0000000000        -8.1209334063      -21.0760033712        2.0012635381
atom         2.9658900000        7.9441800000       14.2791000000 H         0.0000000000         0.0000000000       -14.5089127506       22.0076725715        5.4109039250
atom         2.3067500000       13.5473000000        4.4201900000 H         0.0000000000         0.0000000000        18.0049148897        3.7155846773        2.5029918812
atom         1.0344300000       12.8086000000        4.6919600000 H         0.0000000000         0.0000000000        -9.7551191412       -9.2594557222        6.3602375050
atom         9.1079200000        9.7206000000        2.9507500000 H         0.0000000000         0.0000000000        21.2915503135        0.3968489707        6.3279757983
atom         7.7883600000        9.0166500000        2.8381000000 H         0.0000000000         0.0000000000       -14.8944159317      -20.4145346121        5.1658625418
atom        10.0650000000        5.5716100000        2.9587700000 C         0.0000000000         0.0000000000        -0.3561701640        1.4874514679       -3.8559542331
atom         2.2082000000       13.4132000000        8.7843600000 C         0.0000000000         0.0000000000        -1.0660891346       -2.8398142455        0.6687097713
atom        17.2417000000        8.7446000000       13.1474000000 C         0.0000000000         0.0000000000         9.2247265369        4.6338095781       -9.1593729438
atom         7.3267600000       11.1045000000        5.7786900000 C         0.0000000000         0.0000000000         3.3234861795        0.6650662047       -5.0140088332
atom         5.1820500000        7.1946800000        0.6438000000 C         0.0000000000         0.0000000000        -0.2848208285       -1.8471729563       -6.2648821390
atom        11.9888000000        4.3586300000        5.8931300000 C         0.0000000000         0.0000000000         2.9484063661      -10.5021425335       -1.2592673453
atom         7.9295700000        0.6177600000       12.8878000000 C         0.0000000000         0.0000000000         2.1942803250        0.1349272664        2.9829971881
atom        10.1515000000        2.1754300000        8.3466300000 C         0.0000000000         0.0000000000         1.7623793213       -1.7254824445        2.5359915254
atom        18.4925000000        8.9208700000        4.3555100000 C         0.0000000000         0.0000000000        -8.4057542348       -6.1531307233       -1.9802784394
atom         9.5801600000        8.2398100000       16.0567000000 C         0.0000000000         0.0000000000         3.5442909267        7.9031957120        7.3258748925
atom         1.8432000000        6.3692900000        3.6386000000 C         0.0000000000         0.0000000000        -8.6373051974       -4.6880479870        5.4041010633
atom         6.3676800000        5.6650600000        3.9012600000 C         0.0000000000         0.0000000000        -4.6244469956      -11.6648784248       -0.9474195545
atom        14.2012000000       13.6436000000       15.3768000000 C         0.0000000000         0.0000000000        -2.5529640888       -0.0637624153        2.5401654846
atom        18.5963000000        5.2394000000        6.6743800000 C         0.0000000000         0.0000000000         0.0151046589      -10.9393705238       -5.9547869499
atom        15.1920000000        5.3584700000        6.5340200000 C         0.0000000000         0.0000000000         0.0900283794        0.8555693918       -2.2185630820
energy    -29546.1250023080
charge 0
end
begin
comment generated by PY
lattice        23.0326479440         0.0000000000         0.0000000000
lattice         0.0000000000        23.0326479440         0.0000000000
lattice         0.0000000000         0.0000000000        18.9622341820
atom         1.3128000000        2.7393400000       15.9153600000 N         0.0000000000         0.0000000000        -2.3251489350       11.4762892631       16.4341226013
atom         1.2154100000        3.3918600000       16.8243600000 N         0.0000000000         0.0000000000        -2.1455303265      -13.0480270340      -21.6203014860
atom        22.8531200000        8.5559700000       17.4732600000 N         0.0000000000         0.0000000000        21.6396723463      -25.6297697872       17.8195542048
atom         0.4767400000        7.7849500000       17.9725600000 N         0.0000000000         0.0000000000       -22.3455557210       26.3911599009      -17.4978134390
atom        20.9074200000       14.7684200000       17.4734600000 N         0.0000000000         0.0000000000        12.1233221193       52.7924664429        2.7837540533
atom        21.1656200000       15.8712200000       17.5287600000 N         0.0000000000         0.0000000000       -11.6600587702      -53.3648061840       -3.0754469251
atom         1.7350800000       12.7836200000        3.1378900000 N         0.0000000000         0.0000000000        13.8701816917       28.1860545949      -30.6583298262
atom        16.1751200000       12.9347200000       11.6098600000 N         0.0000000000         0.0000000000       -30.9272849976      -12.8002414456       23.9969907457