begin
comment generated by PY
lattice        19.9650000000         0.0000000000         0.0000000000
lattice         0.0000000000        19.9650000000         0.0000000000
lattice         0.0000000000         0.0000000000        16.4367122000
atom        10.4070000000        4.1858600000        7.4662700000 H         0.0000000000         0.0000000000        -4.2900229283        1.6896694134        0.7620127485
atom        10.2865000000        6.0340100000        7.3645900000 H         0.0000000000         0.0000000000        -2.6766839289       -8.8147099932       -3.2666880497
atom        11.9980000000       15.3210000000       12.0256000000 H         0.0000000000         0.0000000000       -16.4403720099       18.8539812070        9.0301185722
atom        12.6194000000       14.4641000000       10.9791000000 H         0.0000000000         0.0000000000         2.4502524079       -8.6399340998      -23.3080107528
atom        16.2523000000        5.5667100000        7.5079200000 H         0.0000000000         0.0000000000        -3.7647267052       -0.2638818509       -5.7152800982
atom        18.0269000000        7.8335300000        1.3122800000 H         0.0000000000         0.0000000000         6.5225607025        0.4297102517       -0.9604718247
atom         9.3624900000        1.1780500000       13.2036000000 N         0.0000000000         0.0000000000        -8.0079597816       -7.7100636224      -14.3966309423
atom         8.8994300000        1.2083800000       12.1853000000 N         0.0000000000         0.0000000000         3.3845505106       -5.4983264625        9.5995988054
atom         7.8391900000        6.0295500000       15.8209000000 N         0.0000000000         0.0000000000         9.5341529701       -4.5201671975        1.0394080805
atom         8.7670800000        5.9770300000       15.2005000000 N         0.0000000000         0.0000000000        -5.2792973775       -2.4627973460        4.9336428233
atom        14.1634000000        2.6328100000       16.1105000000 N         0.0000000000         0.0000000000         7.0678965419       -4.6933749736       19.7749503130
atom        14.7043000000        2.4034300000        0.6301800000 N         0.0000000000         0.0000000000        -7.6919841527        3.8675306282      -14.9504530633
atom        14.5416000000       11.4218000000       10.7914000000 N         0.0000000000         0.0000000000         8.2758311073      -27.1856188405      -15.0339553077
atom         7.9324500000       12.2436000000       14.1023000000 N         0.0000000000         0.0000000000        -5.0091661181        0.3712287019       21.4928688977
atom         7.8476700000       12.0900000000       15.2078000000 N         0.0000000000         0.0000000000         0.0002075449        1.5524822133       -4.3768458916
atom        11.6497000000        9.8950700000       11.5608000000 N         0.0000000000         0.0000000000        11.4030950837       -4.4025814632       -0.6246871851
atom        11.9391000000        8.9216900000       12.0261000000 N         0.0000000000         0.0000000000         1.4237582343        7.3336924183       -3.5932254096
atom         7.2503200000       11.1840000000       11.5387000000 N         0.0000000000         0.0000000000       -18.4249397112      -11.6619266746        6.4997999416
atom         6.2962900000       11.0713000000       12.1107000000 N         0.0000000000         0.0000000000        -1.3898131076       -2.6598497288       -4.0507928033
atom         7.6463800000        8.5925300000       14.4755000000 N         0.0000000000         0.0000000000       -14.6618041839       -1.8929020230       11.9555796930
atom         6.0486000000        8.1189300000       11.5624000000 N         0.0000000000         0.0000000000        -1.4280474962       -7.3534553079        2.7716242050
atom         6.3177100000        7.2015000000       12.1444000000 N         0.0000000000         0.0000000000        -0.1681113950        9.5865004141       -8.3875594624
atom         0.0985000000        3.3763300000       12.9519000000 N         0.0000000000         0.0000000000         8.8386468421        5.6931880932       -8.3456353861
atom         0.8426500000        3.7727300000       12.2128000000 N         0.0000000000         0.0000000000       -11.6117699827       -6.3478770513        6.7911469052
atom        11.5674000000        1.4288000000       11.3447000000 N         0.0000000000         0.0000000000        13.1882121054      -10.9236893511      -13.7349776987
atom        12.4721000000        0.8060700000       11.1322000000 N         0.0000000000         0.0000000000       -12.4294508941       -0.8099786884       -7.0809488120
atom         5.4573600000        6.0512500000        8.6451600000 N         0.0000000000         0.0000000000        14.3388181484       -7.4263727607        9.8869793547
atom         6.3042500000        5.5992800000        9.2279300000 N         0.0000000000         0.0000000000       -14.2769236376        6.9409712856      -10.3091026861
atom         6.5376300000        9.3397800000        6.6673800000 N         0.0000000000         0.0000000000        14.9067302643        1.9815467696        8.2494959615
atom         7.5046800000        9.5247600000        7.2066000000 N         0.0000000000         0.0000000000       -15.7156020464       -2.2427535969      -10.4520089021
atom         7.2159600000        4.5556600000       13.2262000000 N         0.0000000000         0.0000000000         1.8402778525       -8.9307506708       -5.5423721092
atom         7.5442700000        3.5916300000       12.7635000000 N         0.0000000000         0.0000000000        -7.6093582092       16.4889144634       -3.1054717586
atom         9.1957900000        9.8078800000       10.0046000000 N         0.0000000000         0.0000000000        -3.5778209635      -15.4648185868       -8.7360735245
atom         8.4798500000        8.9502800000       10.0540000000 N         0.0000000000         0.0000000000         4.9603008168        5.1122006466       -4.7510263436
atom        10.7760000000        5.1282000000        7.5515000000 N         0.0000000000         0.0000000000       -13.8699280257      -16.9659910807       -3.7274839201
atom         9.6187200000        3.6491400000       10.7533000000 N         0.0000000000         0.0000000000       -10.7270981793       -7.9364951433      -22.5667063764
atom         9.5698800000        3.0301300000        9.8213400000 N         0.0000000000         0.0000000000        -1.3262121162        8.0409363652        4.9289154110
atom        17.1438000000        5.1412600000        7.2544700000 N         0.0000000000         0.0000000000         3.9709110649       -1.3463670351        4.2727736384
atom        17.6824000000        4.2877700000       15.0663000000 N         0.0000000000         0.0000000000        -9.3469935624        3.2141100003       -6.0054279133
atom        16.8039000000        4.5964500000       14.4411000000 N         0.0000000000         0.0000000000        23.5546663743       -6.2337042781       21.5829664587
atom        14.2143000000        6.3880400000       10.3794000000 N         0.0000000000         0.0000000000         0.5601868323        1.1202814224       -3.2873041797
atom        14.0058000000        7.0882100000       11.2237000000 N         0.0000000000         0.0000000000         1.4271711954        3.3765946216       -4.7741099522
atom        14.0983000000       13.0599000000        7.6996400000 N         0.0000000000         0.0000000000        14.1773712518        3.5578505289      -13.9090848362
atom        14.8792000000       13.2448000000        6.9134400000 N         0.0000000000         0.0000000000       -14.3330068903       -3.5231905253       14.0008658173
atom        11.1769000000        5.6385600000        0.6383000000 N         0.0000000000         0.0000000000         5.4535198177      -15.2402780308        4.9780574388
atom        11.4896000000        4.5782000000        0.8279700000 N         0.0000000000         0.0000000000        -3.8161056061       13.1174854046       -2.7169015246
atom        10.6992000000       17.8036000000       12.1635000000 N         0.0000000000         0.0000000000         2.8143784610       13.0468509460        2.4503907712
atom        10.8027000000       18.8958000000       12.3973000000 N         0.0000000000         0.0000000000        -5.1845646463      -31.6801657691       -3.6753670816
atom        12.2387000000        0.6414800000       13.9506000000 N         0.0000000000         0.0000000000         1.9485701859        0.3866792691       21.1289042684
atom        11.7914000000        1.1244800000       14.8556000000 N         0.0000000000         0.0000000000         3.7873491028       -5.7038420664       -2.5681379294
atom        16.1174000000       15.4257000000        0.2910200000 N         0.0000000000         0.0000000000        10.3517185788       15.1374279866       11.2273045263
atom        16.6489000000       16.2108000000        0.8947200000 N         0.0000000000         0.0000000000       -10.1827539435      -15.0700220048      -11.4536438050
atom         6.7228000000        1.3151900000       13.9876000000 N         0.0000000000         0.0000000000       -19.8422871131      -13.6695318635       11.5605986267
atom         6.0025700000        0.6584400000       14.5403000000 N         0.0000000000         0.0000000000         6.2659890453        4.3125069626       -3.9408170498
atom         8.1023700000       12.3142000000        9.3006900000 N         0.0000000000         0.0000000000        -7.8224837939       10.7377752131      -26.2109647787
atom         7.8259300000       12.7121000000        8.2890600000 N         0.0000000000         0.0000000000         3.8104096508       -3.7662025802        9.0368061311
atom         4.4786200000        5.2067000000       12.9192000000 N         0.0000000000         0.0000000000        -8.7106146795        2.8179297854      -30.7485196294
atom         3.5146800000        5.1690000000       12.3514000000 N         0.0000000000         0.0000000000        13.2955820169        7.6610830184       -7.4122135842
atom         7.3077200000       14.7757000000       11.7500000000 N         0.0000000000         0.0000000000         3.8379900662       -8.0248631633        0.4452761216
atom         7.7018300000       13.7280000000       11.8143000000 N         0.0000000000         0.0000000000       -11.1720283927       30.7146436844       -3.5496640344
atom         3.1246400000        1.8961800000       13.8714000000 N         0.0000000000         0.0000000000         3.4473674434       11.5644266776       -1.0900490440
atom         3.5263700000        2.9435100000       13.8776000000 N         0.0000000000         0.0000000000        -9.7832530097      -35.9262122324        4.1438882356
atom         2.7347300000        5.3271900000       14.8944000000 N         0.0000000000         0.0000000000       -28.5860859212        8.6134605907       28.9080572926
atom         1.8745500000        5.5263800000       15.5880000000 N         0.0000000000         0.0000000000        10.4464743706       -2.0285211059      -10.6754194912
atom         6.2274300000        8.0618800000        2.9232800000 N         0.0000000000         0.0000000000       -21.1325017139       -6.6571881818       10.6652497896
atom         5.2541200000        7.7287700000        3.3771900000 N         0.0000000000         0.0000000000        21.7883206388        6.2343499734      -10.4869917534
atom         5.4927400000        3.7005500000       16.0998000000 N         0.0000000000         0.0000000000        -0.7607213578        5.1133997951       -3.9774141395
atom         5.3208700000        4.4848100000       15.3187000000 N         0.0000000000         0.0000000000         7.6912231546      -15.1716037188       20.8327376503
atom        11.1936000000        7.3267900000       14.1106000000 N         0.0000000000         0.0000000000         0.8094252352       -1.7270275012        8.8773655022
atom        11.1597000000        7.8599700000       15.0924000000 N         0.0000000000         0.0000000000         6.1646379368       -1.9815237090       -5.4799241452
atom        16.0471000000        3.9120200000       11.7991000000 N         0.0000000000         0.0000000000         7.5787107409        9.7212201356      -10.0003911298
atom        15.9979000000        5.0139600000       11.9754000000 N         0.0000000000         0.0000000000         9.5840098749       -7.7184576618      -12.6832091644
atom        12.9572000000       16.1235000000        1.6402200000 N         0.0000000000         0.0000000000         1.3550608617       21.4124567667        5.7042802168
atom        13.0489000000       17.1986000000        1.9549400000 N         0.0000000000         0.0000000000        -1.9875655726      -21.5858490272       -6.0468446575
atom        18.1147000000        8.3082200000        2.2105100000 N         0.0000000000         0.0000000000        -2.3713161521        0.0681900405        0.3277365083
atom        15.9278000000        8.1501000000       13.3699000000 N         0.0000000000         0.0000000000        -1.7093631214      -12.2368261366        3.6387930525
atom        15.6933000000        7.1019900000       13.6921000000 N         0.0000000000         0.0000000000         6.8942044942       27.6929739573        1.2454771376
atom         4.9715300000        7.1736400000       14.6778000000 N         0.0000000000         0.0000000000         1.6298964729       13.2782174243       14.8064630016
atom         5.4252400000        7.3566800000       15.6848000000 N         0.0000000000         0.0000000000       -11.6136148266        1.9906556860       -6.5538999872
atom        10.1816000000       15.2787000000        8.2847500000 N         0.0000000000         0.0000000000        10.3809824142      -10.8724026923        5.6646852559
atom        12.6407000000        9.4036200000        1.9854400000 N         0.0000000000         0.0000000000         7.8551375299       -0.9911654141      -20.5724071238
atom        13.0635000000        9.3481800000        0.9456800000 N         0.0000000000         0.0000000000        -7.8877912659        1.0332739748       21.0519973408
atom         4.7647000000       13.7944000000        9.6083900000 N         0.0000000000         0.0000000000        -4.8666980525      -19.4928045080        0.9173947210
atom         4.4900400000       12.7072000000        9.6723500000 N         0.0000000000         0.0000000000         4.6042228950       19.5046345692       -1.3515787190
atom        11.3909000000        3.4190500000       13.2204000000 N         0.0000000000         0.0000000000       -28.5049589133       -7.1200364409       39.9314604533
atom        10.3328000000        3.7963700000       13.2697000000 N         0.0000000000         0.0000000000        -1.4986358337        2.0666863128       19.3008023853
atom        12.2205000000        3.9776200000       11.6088000000 N         0.0000000000         0.0000000000        54.7803087421       45.9731395481      -54.3898244826
atom         5.8256200000        1.8577300000       11.0980000000 N         0.0000000000         0.0000000000       -17.4463884169       -3.6821699433       -7.4223602254
atom         4.7548900000        1.7179300000       10.7925000000 N         0.0000000000         0.0000000000        15.0419803784        3.1202074488        4.0946539656
atom         8.6901900000        2.8207100000       15.2306000000 N         0.0000000000         0.0000000000         0.2366473437        1.9328659527       23.3672302401
atom         8.6309100000        2.9463000000       16.3420000000 N         0.0000000000         0.0000000000         1.6061210479       -2.3460648520       -7.3555307572
atom         9.8917600000       12.2289000000       12.3555000000 N         0.0000000000         0.0000000000        12.9408877279       -0.3957190039      -13.2450563562
atom         9.8716400000       12.0601000000       11.2491000000 N         0.0000000000         0.0000000000        15.5872239756       11.7589424001       16.3925905544
atom         9.2207800000        6.3354600000       12.1205000000 N         0.0000000000         0.0000000000         1.1863960136        4.6525808642       -4.2340780389
atom         9.8543600000        6.9285600000       11.4165000000 N         0.0000000000         0.0000000000        -5.3443511834       -2.9070357429        0.5721091356
atom        14.8689000000        1.7410800000        9.9559700000 N         0.0000000000         0.0000000000         5.3116974475        3.3050377411      -13.5458120234
atom        15.2109000000        2.5610600000        9.2761300000 N         0.0000000000         0.0000000000        -0.3240237601       -3.9021445108        1.4239196581
atom        11.3379000000       10.7257000000       14.4865000000 N         0.0000000000         0.0000000000         1.4144648334        3.7522740092        5.0623898629
atom        10.6527000000       10.8402000000       15.3616000000 N         0.0000000000         0.0000000000         4.5582171017        3.7527121596       -1.0829002741
atom         6.3586500000       15.3886000000       15.6265000000 N         0.0000000000         0.0000000000        -0.0456829456        8.9038620718      -14.5718219255
atom         6.3522100000       15.9623000000       14.6616000000 N         0.0000000000         0.0000000000         0.4582822706       -8.5293818327       15.2157646682
atom        15.0847000000        6.0589400000        1.4137500000 N         0.0000000000         0.0000000000         2.8046238492       11.8347654820      -16.4473132348
atom        15.2744000000        6.7224500000        0.5272600000 N         0.0000000000         0.0000000000        -2.9875170555      -12.1167037420       16.5425302376
atom        17.8356000000        1.4408100000       11.6334000000 N         0.0000000000         0.0000000000         5.6010150828       -8.5456395190      -12.3721223718
atom        18.1129000000        0.8976800000       10.6919000000 N         0.0000000000         0.0000000000        -3.5411085711        6.9955094817       11.9423198779
atom        12.1369000000        0.3122100000        7.7654000000 N         0.0000000000         0.0000000000        18.5135844578        4.3777221924      -10.9173707610
atom        13.0834000000        0.5277900000        7.1994800000 N         0.0000000000         0.0000000000       -18.4681551782       -4.2756562069       11.0426125972
atom        14.1695000000        4.7102400000       14.0139000000 N         0.0000000000         0.0000000000       -18.8439959897        7.7945574703        4.0560967293
atom        13.4213000000        5.3866800000       13.5292000000 N         0.0000000000         0.0000000000         8.0981265243       -0.5745535537       15.6470891582
atom        15.1335000000        2.0870100000       13.4301000000 N         0.0000000000         0.0000000000         0.0085324028      -13.1546128869       -1.8571351131
atom        14.7525000000        1.3365200000       12.6930000000 N         0.0000000000         0.0000000000         6.9310552500       -1.2609968864       13.6115115247
atom         4.2740100000       12.9822000000       13.4168000000 N         0.0000000000         0.0000000000        -1.0401921392       15.5092793233       -4.9765585032
atom         4.2785600000       14.0245000000       13.0010000000 N         0.0000000000         0.0000000000        -0.6420978988      -15.1743940451        6.2359642118
atom         1.1468200000        7.3298000000        9.7593300000 N         0.0000000000         0.0000000000        14.3699729488        2.6163114142       16.2450952893
atom         1.9160600000        7.4612200000       10.5679000000 N         0.0000000000         0.0000000000       -14.7637087455       -2.7595404779      -16.1026964053
atom         7.2722600000       18.6185000000       11.4351000000 N         0.0000000000         0.0000000000       -13.8066729425       -7.0319451475        9.3918002072
atom         6.3937600000       18.2828000000       12.0479000000 N         0.0000000000         0.0000000000        13.4250900545        5.7242737119       -9.7162159967
atom         9.1729800000       17.9002000000       15.2995000000 N         0.0000000000         0.0000000000        17.6342627015        3.2272314521       14.4020271105
atom        10.0372000000       18.0449000000       16.0033000000 N         0.0000000000         0.0000000000       -17.2161519055       -3.2228038269      -14.4137188084
atom         8.7737500000        9.4259700000        0.6818700000 N         0.0000000000         0.0000000000         0.5468347750       -3.8913752348        3.7472468098
atom         9.2143400000        8.4027400000        0.5858300000 N         0.0000000000         0.0000000000        -3.4684909054        5.8940685270        7.7298034515
atom         8.4278700000        9.0502500000       13.6875000000 C         0.0000000000         0.0000000000        31.3278928377       17.6293738654      -30.5644964563
atom        19.0975000000        7.3585100000       14.4032000000 C         0.0000000000         0.0000000000        -0.9974148226        4.7209553890       14.5602224699
atom        12.0536000000       14.0147000000       15.4014000000 C         0.0000000000         0.0000000000        10.5561964580       -2.7024425610       -3.9967619393
atom        12.9838000000       16.1346000000        6.2699900000 C         0.0000000000         0.0000000000         2.2820948918        3.9348443678       -1.0178464682
atom        12.0808000000        5.2191500000        7.8181100000 C         0.0000000000         0.0000000000        -3.2840526424        6.2057779544       -7.0599175923
atom        11.6094000000        7.5373300000        8.2774300000 C         0.0000000000         0.0000000000         9.7605844910       -9.6176782750      -21.2046812292
atom        18.0116000000        8.8177100000       10.4082000000 C         0.0000000000         0.0000000000         5.7315147240        3.5790431726        0.3998007209
atom        17.8540000000        4.7500800000        8.1733900000 C         0.0000000000         0.0000000000       -15.0813216733        9.0357684065       -2.3537670750
atom        18.2904000000       16.4604000000       14.1761000000 C         0.0000000000         0.0000000000        -0.1225668127        0.7853730836       -0.7312499775
atom        11.5169000000       11.5084000000        5.9140400000 C         0.0000000000         0.0000000000         1.9693477397       -1.7592430867       -6.4735109169
atom        14.2134000000       18.0126000000       15.1596000000 C         0.0000000000         0.0000000000         4.1095972007        5.3452044237        0.4723030838
atom         0.4754500000        4.8676000000        6.0039300000 C         0.0000000000         0.0000000000         1.0068696473        5.0933140578        0.2415592404
atom         0.1916700000       18.9640000000       12.8551000000 C         0.0000000000         0.0000000000         3.3937516693       -3.0907821895       -1.5314971146
atom         1.9528300000        2.9324700000        8.9662500000 C         0.0000000000         0.0000000000        -4.3056118588       -6.0222851739       -0.5864758570
atom         9.0250000000        9.9307600000        4.1304300000 C         0.0000000000         0.0000000000         0.0952631238        0.6535820518       -1.2373367641
atom        17.1009000000        8.6784300000        2.7850800000 C         0.0000000000         0.0000000000         2.9227630367       -7.4159724536      -11.5085279093
atom        15.5741000000        9.8159400000        6.8782800000 C         0.0000000000         0.0000000000         2.1733182868       -5.0185056400       -3.5206077439
atom         2.8436200000       16.2825000000       15.1922000000 C         0.0000000000         0.0000000000        -2.5500815203       -1.3533313206        2.9384903304
atom         7.5318200000        4.7974400000        6.0438700000 C         0.0000000000         0.0000000000         3.4064119102       -1.9945298581        0.5723858622
atom         4.5943800000        4.4092700000        4.4283900000 C         0.0000000000         0.0000000000         0.6703470702       -1.0846759363       -4.2139692410
atom        14.8874000000       10.4647000000       10.2440000000 O         0.0000000000         0.0000000000       -10.0665979632       26.0105224954       15.5702744728
atom         9.2306100000        9.5069200000       12.8855000000 O         0.0000000000         0.0000000000       -19.5676821074      -10.3174275439       18.8608301898
atom        19.3877000000        7.0874100000       13.2930000000 O         0.0000000000         0.0000000000        -3.5882443312        1.6140769370        8.5828592435
atom        18.8154000000        7.6425500000       15.5215000000 O         0.0000000000         0.0000000000         4.2028079357       -6.8527646895      -22.9312244588
atom        10.9724000000       14.4844000000       15.3142000000 O         0.0000000000         0.0000000000         9.6327598734       -4.0443589104        2.0430953722
atom        13.1411000000       13.5496000000       15.4691000000 O         0.0000000000         0.0000000000       -19.6388700191        7.4150500316        0.9272646356
atom        13.5138000000       16.7090000000        7.1592400000 O         0.0000000000         0.0000000000        -7.7999075174       -8.9261385612      -10.3430939338
atom        12.4507000000       15.5658000000        5.3806800000 O         0.0000000000         0.0000000000         5.4952132885        5.2140590872       11.1198423725
atom        12.5711000000        6.5031200000        7.8769300000 O         0.0000000000         0.0000000000         4.3200938829        3.6504386292       16.2035863029
atom        10.5624000000        7.5495800000        7.5913600000 O         0.0000000000         0.0000000000       -11.0226421626       27.5672478495        7.5674341329
atom        12.8125000000        4.2500400000        7.9661300000 O         0.0000000000         0.0000000000        18.8001348274      -13.0364736994        3.4953795044
atom        12.0141000000        8.2537000000        9.1859600000 O         0.0000000000         0.0000000000         1.6308880765        9.7901250530        2.5002476760
atom        17.5059000000        7.8154700000       10.0446000000 O         0.0000000000         0.0000000000         2.1523101276        7.7994001854        3.1652908201
atom        18.5213000000        9.8236500000       10.7685000000 O         0.0000000000         0.0000000000        -8.2131294772      -12.7493698767       -3.9716951236
atom        12.6681000000       14.6513000000       11.9125000000 O         0.0000000000         0.0000000000        13.3953880687       -9.6861681026       15.2158569104
atom        18.5868000000        4.3666200000        9.0086000000 O         0.0000000000         0.0000000000        14.0575486443       -8.2520095612        5.1491436445
atom        19.2582000000       16.0043000000       14.6832000000 O         0.0000000000         0.0000000000       -13.8705275999        6.6823933607       -7.3161894623
atom        17.3266000000       16.9220000000       13.6648000000 O         0.0000000000         0.0000000000        14.1370844744       -6.8651251432        8.4358021288
atom        12.0079000000       11.8179000000        4.8799900000 O         0.0000000000         0.0000000000        -7.5234807284       -4.3222846350       17.6383905396
atom        11.0214000000       11.1960000000        6.9414600000 O         0.0000000000         0.0000000000         5.8296373558        5.8698318910      -10.9487331063
atom        13.6076000000       17.1738000000       14.5870000000 O         0.0000000000         0.0000000000         5.7789272107        9.2603781441        7.6568859986
atom        14.8219000000       18.8574000000       15.7261000000 O         0.0000000000         0.0000000000       -10.5249263549      -14.5873186138       -8.8521603232
atom         0.5795400000        6.0276800000        6.2144100000 O         0.0000000000         0.0000000000        -1.9130338814      -18.3176851024       -2.9690916776
atom         0.3717600000        3.7074800000        5.7902900000 O         0.0000000000         0.0000000000         1.7126146587       14.0273162659        3.6895954397
atom         0.3549800000       18.3277000000       11.8699000000 O         0.0000000000         0.0000000000        -3.5902275384        9.7515678168       14.1201119111
atom         0.0316800000       19.5850000000       13.8492000000 O         0.0000000000         0.0000000000         0.7708218779       -6.7092358386      -12.3849670970
atom         2.4540300000        3.9992100000        8.8810500000 O         0.0000000000         0.0000000000        -4.2844192152       -9.8667783146        0.8458147800
atom         1.4498800000        1.8628600000        9.0404700000 O         0.0000000000         0.0000000000         7.8577433718       16.3274675668        0.2861583403
atom         8.4778200000       10.9720000000        3.9887900000 O         0.0000000000         0.0000000000         7.4847390077      -14.4699173639        2.9304652597
atom         9.5818800000        8.8978600000        4.2760700000 O         0.0000000000         0.0000000000        -7.5190992243       13.1809941538       -2.0488143881
atom        16.1658000000        9.0546600000        3.3915300000 O         0.0000000000         0.0000000000        -6.8266370886        7.3566146030       12.5293261276
atom        10.9694000000       14.5386000000        8.6934900000 O         0.0000000000         0.0000000000       -11.1960344231        9.9117463833       -5.3802564567
atom        13.3363000000        3.4966100000       11.5664000000 O         0.0000000000         0.0000000000       -18.5484520064        4.7320244521       -8.2411480431