begin
comment generated by PY
lattice        19.9650000000         0.0000000000         0.0000000000
lattice         0.0000000000        19.9650000000         0.0000000000
lattice         0.0000000000         0.0000000000        16.4367122000
atom         9.0348300000       14.2439000000        5.0363900000 C         0.0000000000         0.0000000000         0.9699035888       -0.9339752550       -1.7331846675
atom        16.9936000000       19.6071000000       11.6882000000 C         0.0000000000         0.0000000000        -0.3804759817        3.9558064060        0.9069944139
atom         6.0385200000        1.7324800000       13.3078000000 C         0.0000000000         0.0000000000        -1.0874662626        0.1508390445        3.8237155870
atom        17.7104000000        1.4606000000       15.5671000000 C         0.0000000000         0.0000000000         0.2915083874        0.0020985099        0.4687056383
atom         1.8276600000        7.7698500000       15.6048000000 C         0.0000000000         0.0000000000         7.5905177415        1.6007940614        2.8537197559
atom         3.8019600000        4.5753800000       13.5675000000 C         0.0000000000         0.0000000000        -3.2323508938        0.1813020285       -2.3738758729
atom        17.9663000000        4.8159600000       12.8375000000 C         0.0000000000         0.0000000000        -1.3789977106       -1.2466532255        1.3598574557
atom         1.4261400000        2.6077300000       15.0419000000 C         0.0000000000         0.0000000000         0.4276348023       -0.5703565340        1.2606970993
atom         5.9103400000       10.3102000000       10.2660000000 C         0.0000000000         0.0000000000        -1.4401312234        4.3542234940        2.7618695932
atom         7.1302200000        6.9390500000       15.0438000000 C         0.0000000000         0.0000000000        -0.2423432991       -0.9494258222        2.4743968017
atom        15.3631000000        2.4315200000        1.4308400000 C         0.0000000000         0.0000000000         1.1038161911       -0.7349857862       -1.5221345321
atom         5.1694600000       17.9339000000        0.2952200000 C         0.0000000000         0.0000000000        -1.9755279665       -4.0032419533       -3.2095901329
atom        11.9240000000       13.8012000000        6.7955800000 C         0.0000000000         0.0000000000         0.9564823499        1.2679381113        1.7940645142
atom         8.9716900000        9.4929700000       13.7816000000 C         0.0000000000         0.0000000000         6.3596840519       -0.2438422347        7.5980585407
atom         9.6708000000       11.1030000000        8.1065400000 C         0.0000000000         0.0000000000        -2.2338752859       -6.1581809833       -4.5550578066
atom        16.7165000000       10.8167000000        4.3908200000 C         0.0000000000         0.0000000000         0.2965355869        0.2185909346        0.3726815164
atom         7.5856400000       18.4461000000       14.3275000000 C         0.0000000000         0.0000000000        -9.0722040723       -8.8901179852       -7.7346231060
atom         1.8261300000       16.4640000000        3.0739700000 C         0.0000000000         0.0000000000        -4.2517654792       -2.8440112652        0.9020363960
atom        14.8518000000        7.1044500000        3.0178800000 C         0.0000000000         0.0000000000         0.1143572576        0.7263150202       -1.5340568354
atom         6.0714600000       15.5377000000        3.9164500000 C         0.0000000000         0.0000000000        -4.3769611943       -7.5834842743       -6.0251216213
atom        18.1788000000       15.1397000000        5.6163700000 C         0.0000000000         0.0000000000         1.1716142023       -0.7366922668       -0.6028027250
atom        14.6969000000       14.6857000000        4.4094100000 C         0.0000000000         0.0000000000         0.4536932216       -4.9170853499       -3.7887557962
atom         8.4506600000       13.5928000000        5.8359400000 O         0.0000000000         0.0000000000         8.8572797649       10.5522069832      -10.9812946001
atom         9.6189200000       14.8985000000        4.2405600000 O         0.0000000000         0.0000000000        -9.2620154430       -9.7015033670       13.0411088696
atom         3.5300300000       16.4061000000       13.8972000000 O         0.0000000000         0.0000000000        13.8001006863      -11.3410391490       -3.7148928609
atom        16.7354000000        0.6694100000       11.1009000000 O         0.0000000000         0.0000000000         1.4199301833       -8.0198359638        2.5630184877
atom         6.8210200000        2.5933300000       13.5310000000 O         0.0000000000         0.0000000000       -11.6714737415      -12.9933504747       -5.0852889871
atom         5.2471700000        0.8732300000       13.1101000000 O         0.0000000000         0.0000000000        12.8811609086       11.9078443586        1.1510211329
atom        18.3870000000        1.1144400000        0.0398400000 O         0.0000000000         0.0000000000        -9.4686610138        4.7909441522      -13.9835934668
atom        17.0339000000        1.8195700000       14.6655000000 O         0.0000000000         0.0000000000         9.5277190772       -5.0920226671       12.2242350774
atom         2.7908800000        8.3872100000       15.9100000000 O         0.0000000000         0.0000000000       -14.8682422097       -7.9002670224       -4.9687870985
atom         0.8740000000        7.1412000000       15.3025000000 O         0.0000000000         0.0000000000         7.6160918892        5.9538184069        1.6626424511
atom         3.5133700000        4.1393900000       12.5043000000 O         0.0000000000         0.0000000000         6.5676440738        6.0841796848       17.7028678319
atom         4.0735100000        5.0094900000       14.6359000000 O         0.0000000000         0.0000000000        -3.0652311023       -5.7798726932      -15.2840008298
atom        18.2044000000        4.1126800000       11.9162000000 O         0.0000000000         0.0000000000        -1.9862050003        9.6268563731       11.9372234968
atom        17.7213000000        5.5175400000       13.7591000000 O         0.0000000000         0.0000000000         3.8616963096       -9.0383050668      -12.3239719475
atom         9.1034700000        2.2125300000        0.3415000000 O         0.0000000000         0.0000000000         2.8158773967       16.7006102942        9.3942907464
atom         0.6384300000        3.4460800000       14.7624000000 O         0.0000000000         0.0000000000         9.8589607889      -11.6274972765        3.1830705027
atom         2.2215000000        1.7762700000       15.3203000000 O         0.0000000000         0.0000000000       -10.9771898225       11.6244532841       -4.6046149243
atom         6.6324700000        9.7440300000        9.5197800000 O         0.0000000000         0.0000000000        -7.1682791074        5.2135978762        7.6525275551
atom         5.1886300000       10.8871000000       11.0050000000 O         0.0000000000         0.0000000000         9.5263815654       -9.3860581308      -10.1844143030
atom         7.7866600000        6.1455100000       14.4605000000 O         0.0000000000         0.0000000000        -9.0637869723       10.7735651836        6.3066447914
atom         6.4781500000        7.7352900000       15.6288000000 O         0.0000000000         0.0000000000         8.8923317978      -10.1936154616       -8.8611078158
atom        14.8794000000        1.3506200000        1.3950100000 O         0.0000000000         0.0000000000         6.4583831974       16.4901827936        1.2476448291
atom        15.8568000000        3.5074900000        1.4553200000 O         0.0000000000         0.0000000000        -7.7583985310      -15.4381836538        0.4792212482
atom         4.6179300000       18.9448000000        0.0195800000 O         0.0000000000         0.0000000000         8.5389750206      -13.8293414612        4.6865259908
atom         5.7176400000       16.9146000000        0.5488900000 O         0.0000000000         0.0000000000        -7.0024968277       17.1038009156       -1.1245706844
atom        11.6842000000       14.7700000000        7.4331100000 O         0.0000000000         0.0000000000         2.3956219697      -14.1046844045      -10.1885421410
atom        12.1586000000       12.8334000000        6.1535800000 O         0.0000000000         0.0000000000        -3.7782171257       14.2368444051        8.9024323179
atom         9.6831500000        9.3948100000       14.7242000000 O         0.0000000000         0.0000000000       -12.6975067042        1.4556740327      -16.2702082261
atom         8.2635300000        9.5900100000       12.8407000000 O         0.0000000000         0.0000000000         5.6302558577       -1.2177583589        8.0102658364
atom         9.7333700000       11.9216000000        8.9581500000 O         0.0000000000         0.0000000000         0.4700892712       -6.8359535500       -8.6288880973
atom         9.6048200000       10.2840000000        7.2554800000 O         0.0000000000         0.0000000000         1.3255664208       12.3629212131       12.2990204346
atom        17.1775000000       10.8458000000        3.3023500000 O         0.0000000000         0.0000000000        -5.7421686972       -0.6651353863       12.7058546226
atom        16.2557000000       10.7867000000        5.4801500000 O         0.0000000000         0.0000000000         5.1218630162        0.9667673543      -13.2631588864
atom         8.0615500000       19.2625000000       15.0382000000 O         0.0000000000         0.0000000000        -2.4323574227       -4.8337675899       -4.8314845957
atom         7.0845000000       17.6335000000       13.6277000000 O         0.0000000000         0.0000000000        11.1954809700       15.0157374748       12.2106524146
atom         2.8966700000       16.9533000000        2.9529900000 O         0.0000000000         0.0000000000       -11.7507097845       -5.6601192674        0.9550295354
atom         0.7581800000       15.9690000000        3.1975600000 O         0.0000000000         0.0000000000        16.2048085119        8.2078255512       -1.6677618928
atom        14.1835000000        6.8410400000        2.0772800000 O         0.0000000000         0.0000000000         8.8381856311        2.9133082120       13.9835473458
atom        15.5235000000        7.3756200000        3.9543300000 O         0.0000000000         0.0000000000        -9.1123524864       -3.5884518762      -12.3903632652
atom         5.8454400000       14.5061000000        3.3787900000 O         0.0000000000         0.0000000000         4.8010216117       18.8659726920       10.1370018162
atom         6.2955100000       16.5654000000        4.4581700000 O         0.0000000000         0.0000000000        -0.5849308003      -10.6622519183       -4.5634518461
atom         8.7640400000       16.9907000000        7.2516800000 O         0.0000000000         0.0000000000       -22.0778919402        6.1406780274       15.5002395885
atom        18.2210000000       16.2560000000        6.0046700000 O         0.0000000000         0.0000000000        -0.3358538212      -14.1380299569       -4.8004220375
atom        18.1390000000       14.0218000000        5.2269600000 O         0.0000000000         0.0000000000        -0.9843394919       15.4795773375        5.4648656074
atom        14.6272000000       15.5628000000        5.2028800000 O         0.0000000000         0.0000000000         0.6098592527      -11.3751687601       -9.6170556402
atom        14.7662000000       13.8080000000        3.6174200000 O         0.0000000000         0.0000000000        -0.9805806226       14.4916173396       13.1769585579
atom         2.8476300000       16.3614000000       14.5651000000 H         0.0000000000         0.0000000000       -15.9334319829       -6.7220575033       16.5666976919
atom         3.4376800000       17.3028000000       13.5775000000 H         0.0000000000         0.0000000000         1.6284897795       19.3134626261      -11.2041056150
atom         8.5025100000        1.6537600000       16.2900000000 H         0.0000000000         0.0000000000       -17.0989351400      -10.9366955002      -12.9224623501
atom         9.8642100000        1.6414200000        0.4723600000 H         0.0000000000         0.0000000000        14.7703040623       -6.6295385847        3.4829268085
atom        19.7883000000       13.7831000000       12.9865000000 N         0.0000000000         0.0000000000        32.6522601100       -0.7562706721       -6.6642447095
atom         0.9225800000       13.7959000000       12.7658000000 N         0.0000000000         0.0000000000        -9.0316866895       -0.3176590489        1.4882585871
atom        19.5961000000       17.2570000000       13.4661000000 N         0.0000000000         0.0000000000        12.7316132547        1.5900017249       -9.5095934865
atom         0.0019400000       16.9461000000       12.4574000000 N         0.0000000000         0.0000000000         1.8260264338        3.7580852673        6.2951375780
atom        17.2586000000       18.5794000000       12.2960000000 N         0.0000000000         0.0000000000        -4.0138036842       10.6127639823      -11.6712661966
atom        14.3022000000       19.4477000000       13.7066000000 N         0.0000000000         0.0000000000        -4.0037262248       -0.1359649911       -6.5574743722
atom        13.8449000000       19.1992000000       12.7157000000 N         0.0000000000         0.0000000000         3.3059371025        2.2048881771        6.6711398133
atom        11.7453000000       10.7365000000       11.9562000000 N         0.0000000000         0.0000000000        -9.2756211663       20.9459649410        7.8135363013
atom        11.3242000000       11.7090000000       12.3321000000 N         0.0000000000         0.0000000000         8.9287213426      -20.9099213045       -7.9844610832
atom        14.6496000000       18.2355000000        9.6213900000 N         0.0000000000         0.0000000000         9.4012780925       -9.2503929268       -1.5226649247
atom        15.4183000000       17.4294000000        9.4949400000 N         0.0000000000         0.0000000000        -8.7948779219        8.7169332697        1.4292005236
atom         6.6461900000        1.8744700000        9.7655600000 N         0.0000000000         0.0000000000       -11.3949085892       13.6758504536        1.8051335773
atom         5.9903700000        2.7671100000        9.9452200000 N         0.0000000000         0.0000000000         9.5910202815      -12.6046879985       -2.4597994748
atom        15.8227000000       19.0720000000        6.4091800000 N         0.0000000000         0.0000000000        16.5339517137       10.1351800329        1.6818288271
atom        16.7481000000       19.6975000000        6.5247100000 N         0.0000000000         0.0000000000       -15.5800060241      -10.8479585115       -2.1640710071
atom        17.5407000000       15.4799000000       12.6947000000 N         0.0000000000         0.0000000000        -4.7348608995      -21.4439344148       -9.1691044951
atom        17.2503000000       14.4708000000       13.0844000000 N         0.0000000000         0.0000000000        -5.1785919643       21.0157461593      -18.3699633648
atom        12.0733000000        6.1226500000        4.9156400000 N         0.0000000000         0.0000000000        -2.3300377711      -11.3906193273       -2.4226719925
atom        11.7818000000        5.0465300000        4.7875400000 N         0.0000000000         0.0000000000         8.2521018034       33.3404329838        3.1851459520
atom        10.5738000000        1.7848700000       13.3446000000 N         0.0000000000         0.0000000000        -0.1337511785       18.3488629633        3.0085482753
atom        10.5509000000        2.9051500000       13.4075000000 N         0.0000000000         0.0000000000         0.4793365510      -16.9121447011       -1.0855061160
atom         7.6402600000        1.5024900000        5.1755000000 N         0.0000000000         0.0000000000       -11.7883676594        8.3425913938       -7.8301398959
atom         6.9273300000        2.2229800000        4.6951900000 N         0.0000000000         0.0000000000         9.4154372689       -9.1015832105        6.5681514059
atom         9.9287600000        2.9690100000        9.8116900000 N         0.0000000000         0.0000000000        -9.2276321659       30.2087183216       16.5352661649
atom         9.5370500000        3.9441900000       10.2041000000 N         0.0000000000         0.0000000000         4.0010050801      -10.0601410097       -4.4206378723
atom        18.8462000000       14.2947000000        8.9961800000 N         0.0000000000         0.0000000000       -19.9281876545       -8.1655094456       -1.4980593200
atom        17.8072000000       13.8737000000        8.9193600000 N         0.0000000000         0.0000000000        19.7795854831        8.6365672598        1.6844116084
atom         3.5586000000       19.7830000000        9.9258200000 N         0.0000000000         0.0000000000        17.1244401061      -14.4983510196        0.2239640423
atom         4.4288400000       19.0718000000        9.9154000000 N         0.0000000000         0.0000000000       -17.1732592862       14.2980932206        0.1398622237
atom        13.6542000000        3.0689200000        4.6462200000 N         0.0000000000         0.0000000000        29.9407316931       -6.1222987706        1.6756716607
atom        14.7361000000        2.8171400000        4.8020000000 N         0.0000000000         0.0000000000       -10.7722737929        2.3475407271       -2.5392200022
atom        17.7257000000        6.7851400000        0.9624600000 N         0.0000000000         0.0000000000        -3.0641703171       24.1543098043       -2.8685476883
atom        17.5837000000        7.8932800000        0.8328200000 N         0.0000000000         0.0000000000         3.0796670054      -24.2836794786        2.5553623858
atom        18.1193000000       12.6040000000       14.7541000000 N         0.0000000000         0.0000000000        -1.6139155132      -25.6607862243       19.8528719047
atom        18.0468000000       11.6705000000       15.3720000000 N         0.0000000000         0.0000000000         0.1216443908        9.3211196276       -6.5955703975
atom        13.9483000000       16.0562000000       13.1137000000 N         0.0000000000         0.0000000000        10.4119527302       -1.9870351800        0.9776288724
atom        15.0325000000       15.9624000000       13.3835000000 N         0.0000000000         0.0000000000       -32.4815659336        7.4998667272       -4.6110949383
atom        12.7219000000        1.5500900000       10.8080000000 N         0.0000000000         0.0000000000        -4.3863007163       -2.8117034375       -4.6852346002
atom        11.9992000000        1.2135400000       10.0208000000 N         0.0000000000         0.0000000000        18.7998350403        6.6788189758       21.2975691165
atom         4.9005500000        7.6870100000       12.3982000000 N         0.0000000000         0.0000000000        11.1486911181       -9.9238762315       -9.7952444947
atom         5.6220500000        7.0813000000       11.7867000000 N         0.0000000000         0.0000000000       -11.4265476611        9.8924908257        9.7793327166
atom        14.8632000000       12.5129000000       13.2248000000 N         0.0000000000         0.0000000000        -5.9357158767      -12.0086189534       12.4591528800
atom        14.5986000000       11.8038000000       14.0538000000 N         0.0000000000         0.0000000000         4.5131106698       11.1854957527      -12.7515145077
atom        10.8097000000       18.3882000000       12.8757000000 N         0.0000000000         0.0000000000        -0.5447823862      -13.9924487173        5.2051577156
atom        10.7206000000       17.3376000000       13.2573000000 N         0.0000000000         0.0000000000         0.7405894994       12.2448050862       -3.7802233934
atom        14.0032000000       17.7912000000        0.1397700000 N         0.0000000000         0.0000000000       -11.3841854344      -12.3750741219       -3.2834991892
atom        13.2972000000       16.9702000000       16.2808000000 N         0.0000000000         0.0000000000        10.4378958467       12.5869083159        4.4485641959
atom        11.8132000000       18.0191000000        4.1783200000 N         0.0000000000         0.0000000000        -4.6650566206       -1.4064628233       20.4336518064
atom        11.5439000000       17.9492000000        5.2666400000 N         0.0000000000         0.0000000000         4.0118204771        0.6285613572      -20.7118773181
atom         9.5581200000        4.2414800000        3.4891300000 N         0.0000000000         0.0000000000       -27.2783453040       10.5174777979      -16.5185011465
atom         8.6315200000        4.6331800000        2.9916800000 N         0.0000000000         0.0000000000        11.8627609873       -4.8752073947        5.7657135167
atom        15.5921000000       14.3605000000       16.3777000000 N         0.0000000000         0.0000000000         6.5777676544        4.5467098883       -9.0001629203
atom        16.2242000000       14.7394000000       15.5317000000 N         0.0000000000         0.0000000000       -16.2280074232      -11.2388809214       23.3456686277
atom         4.7603100000       19.6534000000        6.2714300000 N         0.0000000000         0.0000000000       -11.7217687967       19.9695582776        4.5926234393
atom         4.1949900000        0.6372200000        6.4817000000 N         0.0000000000         0.0000000000        12.1166806814      -20.1411979365       -4.5147018476
atom         0.2502200000        0.8858700000       12.1873000000 N         0.0000000000         0.0000000000        -3.7037315557       -7.9937544840       10.2377533505
atom        19.9034000000        0.2629400000       13.0666000000 N         0.0000000000         0.0000000000         4.3247290531       11.0103278300      -10.0428917198
atom         8.4052900000        7.3188600000        5.3741100000 N         0.0000000000         0.0000000000        12.6319686268        7.4499175802      -13.7276444445
atom         9.1102600000        7.7190500000        4.5967800000 N         0.0000000000         0.0000000000       -12.6267108218       -6.7698850799       13.9144579439
atom         1.8350100000       17.5158000000        6.4843000000 N         0.0000000000         0.0000000000       -11.6549854497       18.8861506715      -10.3195260538
atom         1.3098200000       18.3883000000        6.0072200000 N         0.0000000000         0.0000000000        11.2151054964      -19.0784295208       10.3026687932
atom        17.1340000000       17.1381000000       14.7208000000 N         0.0000000000         0.0000000000        -5.9646799250       17.4296695196       10.7083960749
atom        16.7936000000       18.1182000000       15.1368000000 N         0.0000000000         0.0000000000         2.1190106963        0.0860619652        3.4520026136
atom         3.0560500000        8.6847800000        8.8985300000 N         0.0000000000         0.0000000000         4.6343630312       15.1854169870      -17.1525047930
atom         3.2712200000        9.4119600000        8.0685500000 N         0.0000000000         0.0000000000        -4.4918488445      -15.3477401845       17.6053678349
atom        17.8068000000       11.1601000000       11.4221000000 N         0.0000000000         0.0000000000         0.6568105285       10.8502415057        6.9030136236
atom        17.9114000000       12.0989000000       12.0275000000 N         0.0000000000         0.0000000000        -3.5451672275      -23.4865916366      -17.4617928630
atom        12.9911000000        0.5669800000        6.5793000000 N         0.0000000000         0.0000000000        -1.7609034462      -14.5025710999        4.0540212800
atom        12.8069000000        0.1780300000        7.6121500000 N         0.0000000000         0.0000000000         5.9844428146       -8.9199122133      -19.6089835489
atom         9.4187600000        0.3912400000       10.6290000000 N         0.0000000000         0.0000000000       -18.2681510453       -8.8032719614       23.4075631386
atom         8.6676700000        0.1726500000       11.4321000000 N         0.0000000000         0.0000000000         7.0620391627        2.0861032943       -8.4423282639
atom         9.6857900000        4.0542700000        6.2783500000 N         0.0000000000         0.0000000000       -23.3369517405       13.4919656438       13.8502573782
atom         8.7812000000        4.3249700000        6.8806000000 N         0.0000000000         0.0000000000         5.0545723371       -1.1842744432       -3.6480403322
atom        19.8927000000        7.4655000000       11.5141000000 N         0.0000000000         0.0000000000        16.9168259923      -15.3605387886        0.7272605027
atom         0.7613200000        6.7127400000       11.5584000000 N         0.0000000000         0.0000000000       -16.4791829122       15.3860437547       -0.3317721042
atom        10.6802000000        1.6538800000        5.3039800000 N         0.0000000000         0.0000000000         3.2335961633       -0.9687505614      -15.9837270381
atom        11.0967000000        2.4562000000        4.6428100000 N         0.0000000000         0.0000000000        -9.7008346111      -31.5200563843        4.4533838504
atom        19.5703000000       14.9009000000       16.0439000000 N         0.0000000000         0.0000000000        -5.0788089731        4.5847136714       -4.4973833761
atom        18.8815000000       15.2195000000       15.2193000000 N         0.0000000000         0.0000000000        21.2298172265       -4.8197698373       20.9206905804
atom        12.2116000000        3.4513300000        6.9527700000 N         0.0000000000         0.0000000000         2.2098461949       -2.8868577634       25.6445515985
atom        11.8766000000        2.8202200000        7.8156000000 N         0.0000000000         0.0000000000         7.6921225160       24.1134926343      -12.2452893577
atom        10.1472000000        0.8093500000        8.1437700000 N         0.0000000000         0.0000000000       -20.6612824758       -1.2646404530      -22.3590692021
atom         9.2222200000        1.3571900000        7.8335100000 N         0.0000000000         0.0000000000         1.0882503212       -9.7472554943       -1.2871014267
atom         0.7726600000       18.5079000000        0.5180400000 N         0.0000000000         0.0000000000         2.5662008433      -12.0309415639      -10.0155649704
atom         0.9965300000       17.6670000000       16.2466000000 N         0.0000000000         0.0000000000        -0.4443536996       13.3189423520       10.3383665215
atom        12.0893000000        3.6648400000        2.4677600000 N         0.0000000000         0.0000000000         7.0409157007        4.6515431395      -32.8539707235
atom        12.2620000000        3.8418300000        1.3725600000 N         0.0000000000         0.0000000000        -2.0672397660       -3.0301098877       13.6117882512
atom        18.8479000000       17.8248000000        9.4777400000 N         0.0000000000         0.0000000000         2.9002559418       13.0670750467       -6.7860735846
atom        19.0737000000       18.8282000000        9.0292100000 N         0.0000000000         0.0000000000        -2.6955935782      -13.4592888472        6.0417482764
atom         7.8438400000       17.2468000000        7.9032800000 N         0.0000000000         0.0000000000        22.3032165548       -5.6244215390      -15.7273168048
atom        15.5318000000        2.5951700000        8.2059800000 N         0.0000000000         0.0000000000       -10.1992652959       -5.7777280622       -0.1829162668
atom        14.5322000000        2.0883400000        8.2387700000 N         0.0000000000         0.0000000000        28.4133162955       15.0614896020        9.2552125814
atom        13.6804000000       10.4226000000        2.5494500000 N         0.0000000000         0.0000000000        -8.1435558039       -3.6258560850       19.4942573226
atom        13.2447000000       10.2341000000        3.5682100000 N         0.0000000000         0.0000000000         8.2883991060        3.7856195617      -19.2670417430
atom         2.7806300000       13.4179000000        1.5202600000 N         0.0000000000         0.0000000000         7.3996455856       14.3372961523      -17.0948303624
atom         3.1202200000       14.1034000000        0.6964600000 N         0.0000000000         0.0000000000        -7.6272301339      -13.5530991566       16.8909289969
atom         8.5033200000       18.9534000000        2.3982900000 N         0.0000000000         0.0000000000       -21.0911541513       10.8789288274        0.1670967309
atom         7.4969400000       19.4545000000        2.3929700000 N         0.0000000000         0.0000000000        21.0947977179      -11.2465139627       -0.3241851840
atom         0.6943800000       11.4037000000        9.7019800000 N         0.0000000000         0.0000000000        15.0750492043        8.6726570175        8.5826747591
atom         1.5638800000       11.9049000000       10.2062000000 N         0.0000000000         0.0000000000       -14.6028383626       -8.8259635407       -9.0883233954
atom        11.2931000000       18.6774000000        9.4109200000 N         0.0000000000         0.0000000000         1.6680386194      -29.8474287159        6.9719185410
atom        11.4148000000       17.6047000000        9.7161900000 N         0.0000000000         0.0000000000        -1.0744601135       10.9140039210       -3.6253026319