lammpslib autogenerated data file

168 atoms
4 atom types

  0.00000000e+00   1.14200000e+01 xlo xhi
  0.00000000e+00   1.05800000e+01 ylo yhi
  0.00000000e+00   1.31400000e+01 zlo zhi
  0.00000000e+00   0.00000000e+00   0.00000000e+00 xy xz yz

Masses

1 1.00799999974
2 12.0109999969
3 14.0069999964
4 15.9989999959

Atoms # charge

1 1   0.00000000e+00   7.06798000e+00   4.99150000e-01   3.48962000e+00
2 1   0.00000000e+00   2.07531000e+00   6.64411000e+00   5.86280000e+00
3 1   0.00000000e+00   3.09409000e+00   9.47384000e+00   4.40403000e+00
4 1   0.00000000e+00   1.27572000e+00   1.99286000e+00   8.61779000e+00
5 1   0.00000000e+00   1.02159000e+01   2.56405000e+00   1.52141000e+00
6 1   0.00000000e+00   1.03479000e+01   4.30859000e+00   1.31167800e+01
7 1   0.00000000e+00   3.01728000e+00   9.93456000e+00   1.23887000e+01
8 1   0.00000000e+00   2.66784000e+00   3.97580000e-01   8.04055000e+00
9 1   0.00000000e+00   1.08514000e+01   8.19190000e+00   1.14664000e+01
10 1   0.00000000e+00   3.16156000e+00   3.37693000e+00   7.29433000e+00
11 1   0.00000000e+00   4.15935000e+00   1.05405000e+01   1.15838000e+01
12 1   0.00000000e+00   5.87613000e+00   8.76953000e+00   2.56215000e+00
13 1   0.00000000e+00   1.06474000e+01   5.49379000e+00   5.18651000e+00
14 1   0.00000000e+00   1.06947000e+01   1.76030000e-01   1.30249100e+01
15 1   0.00000000e+00   6.01390000e+00   2.21540000e-01   1.13804000e+00
16 1   0.00000000e+00   7.68690000e+00   6.29058000e+00   6.27092000e+00
17 1   0.00000000e+00   3.39697000e+00   1.34093000e+00   4.18233000e+00
18 1   0.00000000e+00   4.27655000e+00   7.43801000e+00   1.08320000e+01
19 1   0.00000000e+00   1.08654000e+01   8.76246000e+00   5.69881000e+00
20 1   0.00000000e+00   8.52575000e+00   6.58991000e+00   8.52920000e-01
21 1   0.00000000e+00   8.93132000e+00   7.27162000e+00   5.23574000e+00
22 1   0.00000000e+00   9.33508000e+00   4.22429000e+00   1.03661000e+01
23 1   0.00000000e+00   2.98572000e+00   4.93116000e+00   7.45943000e+00
24 1   0.00000000e+00   4.95082000e+00   7.70965000e+00   1.20349000e+00
25 1   0.00000000e+00   3.04925000e+00   3.01359000e+00   1.28715000e+01
26 1   0.00000000e+00   2.65164000e+00   7.47000000e-01   5.67471000e+00
27 1   0.00000000e+00   2.84492000e+00   8.05472000e+00   1.10298000e+01
28 1   0.00000000e+00   4.84291000e+00   1.69555000e+00   9.65484000e+00
29 1   0.00000000e+00   4.39033000e+00   7.93177000e+00   2.96064000e+00
30 1   0.00000000e+00   1.07187000e+01   2.74969000e+00   1.15521000e+01
31 1   0.00000000e+00   9.11313000e+00   1.95221000e+00   3.23969000e+00
32 1   0.00000000e+00   3.37980000e+00   2.14307000e+00   9.61855000e+00
33 1   0.00000000e+00   7.43925000e+00   9.38047000e+00   2.65480000e-01
34 1   0.00000000e+00   2.31136000e+00   4.10545000e+00   1.19362000e+01
35 1   0.00000000e+00   1.77020000e-01   2.96664000e+00   7.41075000e+00
36 1   0.00000000e+00   8.08042000e+00   6.70942000e+00   3.42022000e+00
37 1   0.00000000e+00   1.79287000e+00   9.89627000e+00   1.45272000e+00
38 1   0.00000000e+00   2.74929000e+00   8.72636000e+00   8.00080000e-01
39 1   0.00000000e+00   1.00614000e+00   7.87805000e+00   1.22731000e+01
40 1   0.00000000e+00   8.70117000e+00   7.45338000e+00   2.26202000e+00
41 1   0.00000000e+00   1.13659500e+01   7.54431000e+00   3.75845000e+00
42 1   0.00000000e+00   4.05624000e+00   1.76730000e-01   2.39740000e+00
43 1   0.00000000e+00   1.07613000e+01   4.36214000e+00   1.03146000e+01
44 1   0.00000000e+00   9.06119000e+00   1.70375000e+00   2.02900000e-01
45 1   0.00000000e+00   7.88757000e+00   6.11955000e+00   1.15202000e+01
46 1   0.00000000e+00   1.11959000e+01   8.77486000e+00   8.19520000e-01
47 1   0.00000000e+00   2.17147000e+00   8.23489000e+00   8.51237000e+00
48 1   0.00000000e+00   5.08217000e+00   1.04714000e+01   3.11976000e+00
49 3   0.00000000e+00   6.86517000e+00   1.85585000e+00   5.61035000e+00
50 3   0.00000000e+00   6.56774000e+00   3.70037000e+00   1.89000000e-02
51 3   0.00000000e+00   3.50020000e+00   5.18599000e+00   1.04795000e+01
52 3   0.00000000e+00   1.13574000e+01   1.31559000e+00   6.54468000e+00
53 3   0.00000000e+00   2.14682000e+00   9.05423000e+00   1.35526000e+00
54 3   0.00000000e+00   7.85279000e+00   1.48090000e+00   1.34404000e+00
55 3   0.00000000e+00   7.63389000e+00   4.34330000e+00   4.37529000e+00
56 3   0.00000000e+00   6.32490000e+00   9.37575000e+00   4.70300000e+00
57 3   0.00000000e+00   4.67430000e+00   2.63846000e+00   3.15266000e+00
58 3   0.00000000e+00   8.13290000e-01   5.45610000e-01   2.53711000e+00
59 3   0.00000000e+00   5.64217000e+00   5.58722000e+00   2.02447000e+00
60 3   0.00000000e+00   9.52033000e+00   8.97839000e+00   1.09517000e+01
61 3   0.00000000e+00   7.20190000e+00   7.43200000e-02   7.89437000e+00
62 3   0.00000000e+00   7.04207000e+00   7.04040000e+00   1.03218000e+01
63 3   0.00000000e+00   5.03603000e+00   3.85464000e+00   8.30437000e+00
64 3   0.00000000e+00   8.47198000e+00   6.61420000e-01   1.02616000e+01
65 3   0.00000000e+00   1.13854000e+01   9.39916000e+00   8.47447000e+00
66 3   0.00000000e+00   2.52970000e-01   1.00496000e+00   3.31249000e+00
67 3   0.00000000e+00   4.41411000e+00   5.58110000e+00   1.30168000e+01
68 3   0.00000000e+00   3.88840000e-01   9.43033000e+00   5.72934000e+00
69 3   0.00000000e+00   2.61660000e+00   7.15086000e+00   3.10539000e+00
70 3   0.00000000e+00   1.34947000e+00   1.63300000e-01   1.05891000e+01
71 3   0.00000000e+00   8.88710000e-01   6.64229000e+00   9.23299000e+00
72 3   0.00000000e+00   1.09908000e+01   6.16940000e+00   4.67170000e-01
73 3   0.00000000e+00   6.61053000e+00   2.62672000e+00   6.30701000e+00
74 3   0.00000000e+00   5.14077000e+00   8.15874000e+00   2.14040000e+00
75 3   0.00000000e+00   9.37451000e+00   9.93893000e+00   2.77111000e+00
76 3   0.00000000e+00   2.99950000e-01   7.69598000e+00   1.14888000e+01
77 3   0.00000000e+00   7.00348000e+00   9.42750000e-01   1.22306000e+01
78 3   0.00000000e+00   9.02296000e+00   9.87567000e+00   5.92714000e+00
79 3   0.00000000e+00   6.58359000e+00   5.11247000e+00   2.10463000e+00
80 3   0.00000000e+00   5.62871000e+00   4.38000000e+00   7.62532000e+00
81 3   0.00000000e+00   4.40553000e+00   3.32083000e+00   2.33307000e+00
82 3   0.00000000e+00   6.12429000e+00   3.17970000e-01   1.22135000e+01
83 3   0.00000000e+00   1.00441000e+01   2.26820000e+00   4.69600000e-01
84 3   0.00000000e+00   8.82824000e+00   9.15902000e+00   1.16907000e+01
85 3   0.00000000e+00   6.65672000e+00   9.52100000e-01   8.21516000e+00
86 3   0.00000000e+00   6.35568000e+00   7.12415000e+00   9.53152000e+00
87 3   0.00000000e+00   8.10546000e+00   1.03255000e+01   5.76599000e+00
88 3   0.00000000e+00   9.16731000e+00   1.47551000e+00   1.03797000e+01
89 3   0.00000000e+00   1.09551000e+01   1.00876000e+01   9.16803000e+00
90 3   0.00000000e+00   6.21080000e-01   1.19440000e-01   1.13754000e+01
91 3   0.00000000e+00   3.45459000e+00   5.65892000e+00   2.81940000e-01
92 3   0.00000000e+00   4.96514000e+00   9.70514000e+00   6.77192000e+00
93 3   0.00000000e+00   1.04780000e+01   3.33708000e+00   1.25295000e+01
94 3   0.00000000e+00   4.51452000e+00   5.22596000e+00   1.05880000e+01
95 3   0.00000000e+00   1.07865000e+01   9.77365000e+00   5.35170000e-01
96 3   0.00000000e+00   5.83130000e-01   6.49219000e+00   3.08620000e-01
97 4   0.00000000e+00   7.95960000e+00   7.60862000e+00   3.79434000e+00
98 4   0.00000000e+00   1.45518000e+00   3.42137000e+00   5.28416000e+00
99 4   0.00000000e+00   2.23267000e+00   9.52027000e+00   3.97876000e+00
100 4   0.00000000e+00   5.63740000e+00   1.01336000e+01   1.00428000e+01
101 4   0.00000000e+00   9.97159000e+00   5.90026000e+00   3.54992000e+00
102 4   0.00000000e+00   3.95945000e+00   1.71448000e+00   1.02395000e+01
103 4   0.00000000e+00   1.03715000e+00   3.26789000e+00   1.05075000e+01
104 4   0.00000000e+00   9.88481000e+00   7.17209000e+00   5.67398000e+00
105 4   0.00000000e+00   4.29257000e+00   6.03182000e+00   6.34238000e+00
106 4   0.00000000e+00   3.93943000e+00   3.63389000e+00   5.40423000e+00
107 4   0.00000000e+00   9.17696000e+00   6.97116000e+00   1.55326000e+00
108 4   0.00000000e+00   1.08379000e+01   5.37167000e+00   7.18643000e+00
109 4   0.00000000e+00   3.67624000e+00   1.40491000e+00   1.10179000e+00
110 4   0.00000000e+00   6.61469000e+00   8.41910000e+00   1.18911000e+01
111 4   0.00000000e+00   3.52086000e+00   1.17000000e-03   1.23604000e+01
112 4   0.00000000e+00   6.87636000e+00   6.23074000e+00   5.89938000e+00
113 4   0.00000000e+00   2.55161000e+00   4.33300000e+00   2.50091000e+00
114 4   0.00000000e+00   9.46542000e+00   7.00909000e+00   8.94664000e+00
115 4   0.00000000e+00   3.58561000e+00   7.66638000e+00   1.14632000e+01
116 4   0.00000000e+00   7.20200000e-01   8.06421000e+00   3.58468000e+00
117 4   0.00000000e+00   6.82320000e+00   1.03671000e+01   2.96617000e+00
118 4   0.00000000e+00   2.17544000e+00   7.60918000e+00   5.26931000e+00
119 4   0.00000000e+00   3.30014000e+00   9.69091000e+00   9.42454000e+00
120 4   0.00000000e+00   7.06585000e+00   3.29012000e+00   9.61408000e+00
121 4   0.00000000e+00   9.14310000e-01   5.19190000e+00   4.09758000e+00
122 4   0.00000000e+00   1.06154000e+01   2.65543000e+00   8.98153000e+00
123 4   0.00000000e+00   7.60497000e+00   2.48465000e+00   3.61692000e+00
124 4   0.00000000e+00   8.99693000e+00   4.54238000e+00   1.66104000e+00
125 4   0.00000000e+00   2.09776000e+00   6.33405000e+00   7.50864000e+00
126 4   0.00000000e+00   1.01022000e+01   4.86700000e+00   1.06658000e+01
127 4   0.00000000e+00   1.00815000e+01   2.77072000e+00   4.93914000e+00
128 4   0.00000000e+00   2.69917000e+00   4.04764000e+00   7.77698000e+00
129 4   0.00000000e+00   5.37876000e+00   8.76025000e+00   1.20593000e+01
130 4   0.00000000e+00   1.26990000e+00   1.73478000e+00   5.12570000e-01
131 4   0.00000000e+00   8.07267000e+00   5.57560000e+00   1.24512000e+01
132 4   0.00000000e+00   8.34187000e+00   5.03616000e+00   8.26983000e+00
133 4   0.00000000e+00   7.84137000e+00   7.95339000e+00   7.29187000e+00
134 4   0.00000000e+00   3.35402000e+00   8.69660000e-01   7.48631000e+00
135 4   0.00000000e+00   1.04125000e+00   2.46631000e+00   7.57786000e+00
136 4   0.00000000e+00   1.11020000e+01   3.03303000e+00   2.94248000e+00
137 4   0.00000000e+00   2.93871000e+00   3.44568000e+00   1.19951000e+01
138 4   0.00000000e+00   3.65862000e+00   8.07115000e+00   7.07855000e+00
139 4   0.00000000e+00   8.87540000e-01   4.16529000e+00   1.11876000e+00
140 4   0.00000000e+00   3.94797000e+00   5.92816000e+00   3.86935000e+00
141 4   0.00000000e+00   4.30662000e+00   1.01466000e+01   3.08011000e+00
142 4   0.00000000e+00   9.08647000e+00   2.75597000e+00   7.21641000e+00
143 4   0.00000000e+00   7.70437000e+00   9.75573000e+00   9.91640000e-01
144 4   0.00000000e+00   2.67328000e+00   1.33798000e+00   4.86728000e+00
145 2   0.00000000e+00   4.46148000e+00   1.00377000e+01   9.67698000e+00
146 2   0.00000000e+00   7.25887000e+00   4.46380000e+00   1.27919000e+01
147 2   0.00000000e+00   1.77120000e-01   3.05683000e+00   9.63263000e+00
148 2   0.00000000e+00   1.07257000e+01   5.95637000e+00   6.10454000e+00
149 2   0.00000000e+00   8.62167000e+00   7.44063000e+00   8.13890000e+00
150 2   0.00000000e+00   7.00877000e+00   2.97450000e-01   1.49220000e+00
151 2   0.00000000e+00   7.25369000e+00   5.14199000e+00   5.00464000e+00
152 2   0.00000000e+00   6.98481000e+00   8.54684000e+00   4.40950000e+00
153 2   0.00000000e+00   9.52425000e+00   5.10258000e+00   2.66432000e+00
154 2   0.00000000e+00   2.69274000e+00   3.54386000e+00   5.32811000e+00
155 2   0.00000000e+00   9.60229000e+00   2.73688000e+00   6.08437000e+00
156 2   0.00000000e+00   1.82350000e-01   2.49580000e-01   6.32853000e+00
157 2   0.00000000e+00   2.50580000e+00   7.96552000e+00   2.34204000e+00
158 2   0.00000000e+00   8.18256000e+00   2.17610000e+00   2.47998000e+00
159 2   0.00000000e+00   9.81660000e+00   9.99628000e+00   1.79031000e+00
160 2   0.00000000e+00   7.75092000e+00   4.13904000e+00   8.94865000e+00
161 2   0.00000000e+00   4.23816000e+00   1.04621000e+01   7.01366000e+00
162 2   0.00000000e+00   1.75585000e+00   4.82965000e+00   3.27635000e+00
163 2   0.00000000e+00   2.47463000e+00   1.61282000e+00   8.54680000e-01
164 2   0.00000000e+00   1.33679000e+00   8.69594000e+00   4.69929000e+00
165 2   0.00000000e+00   2.82620000e-01   3.52742000e+00   1.99143000e+00
166 2   0.00000000e+00   2.73199000e+00   7.55051000e+00   7.78227000e+00
167 2   0.00000000e+00   7.31900000e-01   7.12861000e+00   1.02025000e+01
168 2   0.00000000e+00   4.20287000e+00   5.87961000e+00   5.12124000e+00
