lammpslib autogenerated data file

192 atoms
3 atom types

  0.00000000e+00   1.40929000e+01 xlo xhi
  0.00000000e+00   1.40929000e+01 ylo yhi
  0.00000000e+00   1.40929000e+01 zlo zhi
  0.00000000e+00   0.00000000e+00   0.00000000e+00 xy xz yz

Masses

1 15.998999995884349
2 28.084999992775295
3 63.546000000000000

Atoms # full

1 0 1   0.00000000e+00   2.99216190e-01   6.27102873e+00   1.23545534e+01
2 0 1   0.00000000e+00   6.11943256e+00   2.03058880e-01   1.36338727e+01
3 0 1   0.00000000e+00   2.04038107e+00   3.90195913e+00   2.33560081e+00
4 0 1   0.00000000e+00   1.28953438e+01   1.39265309e+01   9.53283905e+00
5 0 1   0.00000000e+00   4.04115274e+00   3.81277169e+00   7.04646477e+00
6 0 1   0.00000000e+00   4.55052860e+00   9.22820926e+00   1.39254934e+01
7 0 1   0.00000000e+00   1.19302991e+01   1.25476228e+01   4.07424445e+00
8 0 1   0.00000000e+00   1.38076192e+01   2.14789103e+00   8.93657653e+00
9 0 1   0.00000000e+00   3.76350444e+00   1.33056960e+01   9.40979757e+00
10 0 1   0.00000000e+00   1.28654809e+01   1.14214350e+01   9.02070816e+00
11 0 1   0.00000000e+00   8.90959332e+00   9.97732655e+00   7.24537523e+00
12 0 1   0.00000000e+00   7.99605532e+00   1.00979534e+01   1.22030811e+01
13 0 1   0.00000000e+00   1.57412574e+00   8.80471949e+00   8.36706551e+00
14 0 1   0.00000000e+00   4.38763428e+00   8.77053481e+00   6.75194981e+00
15 0 1   0.00000000e+00   1.90493606e+00   8.01714936e+00   1.34880562e+01
16 0 1   0.00000000e+00   8.47365075e+00   8.68309789e+00   2.82749893e+00
17 0 2   0.00000000e+00   4.15346534e+00   5.29121830e+00   1.23893955e+01
18 0 2   0.00000000e+00   2.64103574e+00   7.70714198e+00   3.30507295e+00
19 0 2   0.00000000e+00   1.25113108e+01   2.96753744e+00   8.40682397e+00
20 0 2   0.00000000e+00   1.01616068e+01   2.84772684e+00   1.41164275e+00
21 0 2   0.00000000e+00   5.74408341e+00   1.74695706e+00   1.33775382e+01
22 0 2   0.00000000e+00   4.36999432e+00   7.33813576e+00   5.91225659e+00
23 0 2   0.00000000e+00   4.48556452e+00   1.02822632e+01   1.26755121e+01
24 0 2   0.00000000e+00   9.25868020e+00   1.35295727e+01   1.03131205e+01
25 0 1   0.00000000e+00   4.30004885e+00   2.83594654e+00   3.13979868e+00
26 0 1   0.00000000e+00   8.78680559e+00   1.25158678e+01   7.66720285e+00
27 0 1   0.00000000e+00   1.72710632e+00   6.34825416e+00   3.31960487e+00
28 0 1   0.00000000e+00   1.48222270e+00   2.98324330e-01   8.75378802e+00
29 0 1   0.00000000e+00   4.35279380e-01   1.00457981e+01   1.29120854e+01
30 0 1   0.00000000e+00   1.10571063e+01   2.65608731e+00   9.14916033e+00
31 0 1   0.00000000e+00   9.45722905e+00   7.96039272e+00   1.22106285e+01
32 0 1   0.00000000e+00   9.50850138e+00   1.17649282e+01   5.27213981e+00
33 0 1   0.00000000e+00   9.61571291e+00   1.20357940e+01   2.81668264e+00
34 0 1   0.00000000e+00   3.91506782e+00   3.91845082e+00   1.15370097e+01
35 0 1   0.00000000e+00   2.91267326e+00   1.03288543e+01   1.22082086e+01
36 0 1   0.00000000e+00   4.54425609e+00   6.45021706e+00   1.13148546e+01
37 0 1   0.00000000e+00   1.61642867e+00   8.96105653e+00   3.59601483e+00
38 0 1   0.00000000e+00   5.98631687e+00   2.83994800e+00   8.32762849e+00
39 0 1   0.00000000e+00   5.64907942e+00   1.35240499e+01   5.48519736e+00
40 0 1   0.00000000e+00   5.63530152e+00   2.04412711e+00   5.77586286e+00
41 0 2   0.00000000e+00   1.21650452e+01   1.25438986e+01   1.00130951e+01
42 0 2   0.00000000e+00   7.51571420e+00   1.34709500e+01   8.03028593e+00
43 0 2   0.00000000e+00   2.73938902e+00   3.12075442e+00   3.62400438e+00
44 0 2   0.00000000e+00   3.70531424e+00   1.02283122e+01   6.34380510e+00
45 0 2   0.00000000e+00   2.77503787e+00   4.66753148e+00   6.51607796e+00
46 0 2   0.00000000e+00   6.90393430e+00   5.96459783e+00   1.33692319e+01
47 0 2   0.00000000e+00   9.14910620e-01   9.04590984e+00   6.89988577e+00
48 0 2   0.00000000e+00   9.31382108e+00   5.13803756e+00   7.74540889e+00
49 0 1   0.00000000e+00   6.93336411e+00   1.17482553e+01   4.05822762e+00
50 0 1   0.00000000e+00   5.89275420e+00   6.72677430e+00   6.09077127e+00
51 0 1   0.00000000e+00   1.30847122e+01   8.42853954e+00   3.59572522e+00
52 0 1   0.00000000e+00   7.87529963e+00   9.23388400e-01   4.48396490e+00
53 0 1   0.00000000e+00   5.61843804e+00   5.55277002e+00   8.92744125e+00
54 0 1   0.00000000e+00   3.12203245e+00   1.75059406e+00   1.02504120e+01
55 0 1   0.00000000e+00   1.31039524e+01   4.53452417e+00   8.46464076e+00
56 0 1   0.00000000e+00   8.43680834e+00   1.25155123e+01   1.12756644e+01
57 0 1   0.00000000e+00   8.00832370e+00   1.41262283e+01   9.43102554e+00
58 0 1   0.00000000e+00   3.27048000e-01   7.61227799e+00   6.26899711e+00
59 0 1   0.00000000e+00   1.34716746e+01   1.23667441e+01   6.32953065e+00
60 0 1   0.00000000e+00   5.33899280e+00   8.18610295e+00   9.49429658e+00
61 0 1   0.00000000e+00   1.07405140e+01   2.65596224e+00  -1.68832590e-01
62 0 1   0.00000000e+00   7.89512172e+00   4.96366144e+00   1.25406314e+01
63 0 1   0.00000000e+00   1.40946983e+01   1.10176514e+01   3.92029504e+00
64 0 1   0.00000000e+00   3.91247445e+00   7.67747591e+00   4.36617570e+00
65 0 2   0.00000000e+00   1.21936266e+01   2.75248030e+00   1.30775784e+01
66 0 2   0.00000000e+00   6.00593097e+00   1.27102901e+01   1.38838689e+01
67 0 2   0.00000000e+00   6.34060060e-01   9.26319640e-01   3.41500895e+00
68 0 2   0.00000000e+00   8.00017167e+00   9.63481270e-01   2.82836332e+00
69 0 2   0.00000000e+00   7.45350238e+00   9.28128955e+00   1.73717958e+00
70 0 2   0.00000000e+00   7.74241407e+00   3.54242534e+00   1.17534734e+01
71 0 2   0.00000000e+00   1.27270654e+00   1.33902822e+01   8.45320050e-01
72 0 2   0.00000000e+00   1.52649740e-01   7.37927630e-01   9.62453152e+00
73 0 1   0.00000000e+00   4.22977984e+00   1.26929001e+01   3.52525785e+00
74 0 1   0.00000000e+00   6.36527920e+00   4.41977662e+00   2.36877438e+00
75 0 1   0.00000000e+00   1.23485574e+01   5.46239026e+00   1.06569090e+01
76 0 1   0.00000000e+00   6.08370049e+00   1.26728858e+01   8.14295004e+00
77 0 1   0.00000000e+00   1.17535941e+01   8.12304089e+00   5.89058118e+00
78 0 1   0.00000000e+00   1.57432166e+00   8.45108322e+00   1.08950646e+01
79 0 1   0.00000000e+00   1.00742774e+01   1.17548914e+01   1.31769735e+01
80 0 1   0.00000000e+00   3.41295127e+00   7.92697313e+00   1.86533546e+00
81 0 1   0.00000000e+00   8.13635134e+00   7.99830748e+00   5.17721208e+00
82 0 1   0.00000000e+00   1.23749683e+01   2.79640981e+00   6.78057870e+00
83 0 1   0.00000000e+00   1.03081183e+01   4.32178118e+00   6.73003841e+00
84 0 1   0.00000000e+00   5.29106384e+00   2.68085995e+00   5.61300250e-01
85 0 1   0.00000000e+00   7.50490728e+00   7.95288522e+00   7.87729729e+00
86 0 1   0.00000000e+00   1.35939265e+01   2.10332116e+00   3.46964375e+00
87 0 1   0.00000000e+00   6.20436320e-01   4.03810550e-01   1.85589156e+00
88 0 1   0.00000000e+00   1.25089172e+01   7.19481239e+00   8.22242912e+00
89 0 2   0.00000000e+00   9.61554326e+00   1.13884560e+01   6.84909891e+00
90 0 2   0.00000000e+00   1.36166995e+01   5.02711723e+00   1.15993605e+01
91 0 2   0.00000000e+00   5.40699205e+00   1.21779658e+01   4.56134130e+00
92 0 2   0.00000000e+00   5.68315710e+00   9.66935714e+00   1.00388387e+01
93 0 2   0.00000000e+00   1.77568653e+00   7.64454814e+00   9.48405167e+00
94 0 2   0.00000000e+00   1.28126660e+01   1.12610712e+01   7.38115696e+00
95 0 2   0.00000000e+00   7.44927783e+00   7.18907071e+00   6.42887955e+00
96 0 2   0.00000000e+00   7.83164704e+00   5.09054369e+00   2.01355384e+00
97 0 1   0.00000000e+00   7.55431649e+00   1.22162714e+01   1.37509367e+01
98 0 1   0.00000000e+00   7.52110106e+00   6.12558550e+00   7.85468850e-01
99 0 1   0.00000000e+00   3.25901487e+00   6.23635482e+00   6.42833268e+00
100 0 1   0.00000000e+00   8.46857328e+00   5.92960954e+00   6.57905491e+00
101 0 1   0.00000000e+00   5.39182133e+00   1.25181057e+01   1.28685321e+00
102 0 1   0.00000000e+00   3.63368800e-01   1.20392306e+01   7.69646750e-01
103 0 1   0.00000000e+00   5.50868404e+00   9.54121424e+00   1.16504175e+01
104 0 1   0.00000000e+00   1.87856550e+00   2.50595721e+00   1.26799649e+01
105 0 1   0.00000000e+00   1.23032479e+01   1.07956691e+01   1.39557716e+01
106 0 1   0.00000000e+00   7.12771684e+00   1.00763136e+01   9.39335878e+00
107 0 1   0.00000000e+00   8.30410425e+00   5.96692468e+00   3.31931862e+00
108 0 1   0.00000000e+00   1.23784216e+01   1.22274835e+01   1.16318294e+01
109 0 1   0.00000000e+00   2.09591575e+00   9.88248619e+00   6.08197972e+00
110 0 1   0.00000000e+00   9.23565555e+00   3.29396483e+00   1.11140713e+01
111 0 1   0.00000000e+00   7.52680382e+00   1.08941227e+01   1.71761840e+00
112 0 1   0.00000000e+00   8.13857106e+00   4.37897627e+00   8.61176946e+00
113 0 2   0.00000000e+00   8.85669247e+00   7.44356721e+00   3.79162401e+00
114 0 2   0.00000000e+00   6.56733402e+00   4.18225922e+00   9.06870654e+00
115 0 2   0.00000000e+00   1.46437061e+00   6.43204899e+00   1.35019078e+01
116 0 2   0.00000000e+00   8.53520205e+00   1.16081630e+01   1.26182263e+01
117 0 2   0.00000000e+00   1.14945464e+01   1.11819952e+01   1.25849925e+01
118 0 2   0.00000000e+00   1.38930233e+01   1.05991644e+01   2.33823150e-01
119 0 2   0.00000000e+00   8.25803361e+00   9.24142488e+00   8.54820414e+00
120 0 2   0.00000000e+00   1.04432526e+01   2.28453164e+00   1.06583635e+01
121 0 1   0.00000000e+00   1.36039866e+01   9.87546755e+00   7.04602539e+00
122 0 1   0.00000000e+00   6.89039397e+00   7.44779960e+00   1.26554385e+01
123 0 1   0.00000000e+00   6.31748100e-01   6.47742678e+00   9.37376643e+00
124 0 1   0.00000000e+00   1.14914316e+01   7.70755132e+00   1.05055738e+01
125 0 1   0.00000000e+00   9.41440981e+00   1.56062842e+00   2.18502659e+00
126 0 1   0.00000000e+00   3.12199680e-01   1.37159990e+01   4.37593400e+00
127 0 1   0.00000000e+00   5.88310454e+00   8.90611055e+00   2.05272418e+00
128 0 1   0.00000000e+00   1.02815878e+01   5.81428382e+00   8.91045814e+00
129 0 1   0.00000000e+00   3.60908099e+00   1.05670221e+01   1.90077041e+00
130 0 1   0.00000000e+00   1.11087927e+01   9.97863314e+00   1.15552667e+01
131 0 1   0.00000000e+00   9.03640942e+00   4.05589243e+00   1.54961394e+00
132 0 1   0.00000000e+00   6.24870560e-01   4.22694609e+00   1.05519107e+01
133 0 1   0.00000000e+00   1.05144159e+01   7.35705511e+00   3.75356308e+00
134 0 1   0.00000000e+00   1.26875954e+01   5.56231459e+00   6.08469556e+00
135 0 1   0.00000000e+00   1.40934494e+01   9.56403227e+00   1.49980364e+00
136 0 1   0.00000000e+00   9.40926251e+00   8.92542332e+00   9.64646604e+00
137 0 2   0.00000000e+00   4.70752185e+00   6.70482874e+00   9.70774612e+00
138 0 2   0.00000000e+00   1.34800483e+01   1.23818569e+01   4.66114037e+00
139 0 2   0.00000000e+00   3.07446789e+00   6.53100150e-01   9.03013761e+00
140 0 2   0.00000000e+00   3.26044892e+00   2.43601368e+00   1.17414440e+01
141 0 2   0.00000000e+00   8.08193538e+00   8.57973219e+00   1.28630830e+01
142 0 2   0.00000000e+00   5.70126700e-01   4.87143127e+00   8.97901083e+00
143 0 2   0.00000000e+00   1.17876641e+01   4.17047171e+00   6.03870298e+00
144 0 2   0.00000000e+00   1.72159396e+00   9.19141804e+00   1.23499241e+01
145 0 1   0.00000000e+00   1.12162275e+01   1.12623452e+01   7.05903228e+00
146 0 1   0.00000000e+00   1.29766643e+01   4.20192730e+00   1.28918505e+01
147 0 1   0.00000000e+00   3.87642598e+00   1.22655082e+00   7.69828609e+00
148 0 1   0.00000000e+00   1.05497863e+01   1.26786452e+01   9.69625049e+00
149 0 1   0.00000000e+00   1.17119813e+01   3.76472745e+00   4.47108888e+00
150 0 1   0.00000000e+00   4.67980213e+00   1.09072059e+01   9.71317914e+00
151 0 1   0.00000000e+00   6.72075552e+00   1.87618094e+00   2.50099509e+00
152 0 1   0.00000000e+00   1.56502350e+00   4.53616471e+00   7.67871494e+00
153 0 1   0.00000000e+00   6.56285299e+00   3.75786655e+00   1.06435663e+01
154 0 1   0.00000000e+00   7.67975336e+00   1.35767470e+01   2.19178550e+00
155 0 1   0.00000000e+00   9.16840410e-01   5.94534461e+00   8.64998780e-01
156 0 1   0.00000000e+00   1.16384014e+01   3.14272031e+00   2.03296123e+00
157 0 1   0.00000000e+00   4.37737385e+00   1.55028920e+00   1.25164783e+01
158 0 1   0.00000000e+00   2.49536606e+00   4.06094234e+00   4.98522127e+00
159 0 1   0.00000000e+00   1.36489050e+01   4.73414755e+00   2.82141471e+00
160 0 1   0.00000000e+00   4.70938739e+00   1.07983371e+01   5.15874185e+00
161 0 2   0.00000000e+00   1.38737310e-01   9.54183976e+00   3.15365715e+00
162 0 2   0.00000000e+00   1.16009066e+01   8.48443423e+00   4.29657219e+00
163 0 2   0.00000000e+00   1.27037328e+01   3.44286138e+00   3.21873993e+00
164 0 2   0.00000000e+00   7.94866232e+00   1.20601650e+01   2.76504015e+00
165 0 2   0.00000000e+00   5.60527986e+00   2.98156391e+00   2.14515959e+00
166 0 2   0.00000000e+00   6.65586979e+00   7.45046240e-01   5.59071601e+00
167 0 2   0.00000000e+00   4.60566344e+00   1.21331728e+01   8.63727463e+00
168 0 2   0.00000000e+00   1.05901241e+01   1.15786946e+01   4.05228685e+00
169 0 1   0.00000000e+00   2.75487888e+00   5.49226557e+00   1.31786161e+01
170 0 1   0.00000000e+00   3.74102879e+00   1.14824336e+01   7.40270128e+00
171 0 1   0.00000000e+00   8.15861268e+00   8.77194971e+00   3.69060250e-01
172 0 1   0.00000000e+00   3.18325784e+00   6.85965261e+00   9.11285809e+00
173 0 1   0.00000000e+00   2.75372093e+00   1.30170760e+01   1.39089295e+00
174 0 1   0.00000000e+00   4.76698630e-01   7.87600580e-01   1.12079596e+01
175 0 1   0.00000000e+00   1.41712529e+00  -1.36295000e-02   1.34629071e+01
176 0 1   0.00000000e+00   1.11097064e+01   1.00264302e+01   4.06616662e+00
177 0 1   0.00000000e+00   7.13021774e+00   2.34424599e+00   1.27023122e+01
178 0 1   0.00000000e+00   4.98831678e+00   1.18213898e+01   1.29397500e+01
179 0 1   0.00000000e+00   1.34195852e+01   1.71303733e+00   1.34991723e+01
180 0 1   0.00000000e+00   7.49673375e+00   6.32220400e-01   6.98993195e+00
181 0 1   0.00000000e+00   9.87289399e+00   7.84872010e-01   1.09752699e+01
182 0 1   0.00000000e+00   5.39159941e+00   5.31515418e+00   1.34765410e+01
183 0 1   0.00000000e+00   2.05293254e+00   1.63568650e+00   3.90904254e+00
184 0 1   0.00000000e+00   1.17986725e+01   2.34861416e+00   1.15486611e+01
185 0 2   0.00000000e+00   4.38058056e+00   9.17613050e+00   1.44498805e+00
186 0 2   0.00000000e+00   1.17074955e+01   6.46023900e+00   9.48221180e+00
187 0 2   0.00000000e+00   1.03128944e+01   8.67084219e+00   1.09909861e+01
188 0 2   0.00000000e+00   3.97666625e+00   1.21678502e+01   2.00549978e+00
189 0 2   0.00000000e+00   1.04832320e+00   5.22703973e+00   2.32545671e+00
190 0 2   0.00000000e+00   4.87929489e+00   2.44057836e+00   7.19638854e+00
191 0 2   0.00000000e+00   1.28456324e+01   7.11434966e+00   6.61733006e+00
192 0 2   0.00000000e+00   7.38469990e-01   1.29153960e+00   1.27356221e+01
