begin
comment generated by PY
lattice        30.0000000000         0.0000000000         0.0000000000
lattice         0.0000000000        30.0000000000         0.0000000000
lattice         0.0000000000         0.0000000000        30.0000000000
atom         0.0000000000        0.0000000000        0.6674800000 C         0.0000000000         0.0000000000      -190.7687523986       28.8878331920       79.2971303612
atom         0.0000000000        0.0000000000       29.3325200000 C         0.0000000000         0.0000000000      -171.4583798859        3.1125052257     -112.2768963740
atom         1.7484000000       29.9723700000        0.5610900000 O         0.0000000000         0.0000000000       254.1096208343      -10.3464377133      114.4155315967
atom         0.0000000000        0.9228300000        1.2377000000 H         0.0000000000         0.0000000000       -11.0356483117        3.7328570278        2.5268595484
atom         0.0000000000       29.0771700000        1.2377000000 H         0.0000000000         0.0000000000        -8.8914554970       -3.4665538194        3.7510979213
atom         0.0000000000        0.9228300000       28.7623000000 H         0.0000000000         0.0000000000         2.0988096562        4.3110310876        1.0445505828
atom         0.0000000000       29.0771700000       28.7623000000 H         0.0000000000         0.0000000000        -3.1689805078       -4.4529918211       -0.7191431898
atom         0.9338200000       29.8538000000        0.0506800000 H         0.0000000000         0.0000000000       113.4311921048      -35.5559751341      -83.0138219448
atom         2.4177700000        0.1738300000       29.8906700000 H         0.0000000000         0.0000000000        15.6836170663       13.7777319547       -5.0253085017
energy      -933.6428840501
charge 0
end
begin
comment generated by PY
lattice        30.0000000000         0.0000000000         0.0000000000
lattice         0.0000000000        30.0000000000         0.0000000000
lattice         0.0000000000         0.0000000000        30.0000000000
atom         0.0000000000        0.0000000000        0.6674800000 C         0.0000000000         0.0000000000       -59.8600170766        5.0476311122        3.3666785859
atom         0.0000000000        0.0000000000       29.3325200000 C         0.0000000000         0.0000000000       -40.0368471577       -0.2171842412      -10.1825694591
atom         2.2476900000       29.9370800000        0.5467600000 O         0.0000000000         0.0000000000        68.0114134668       -3.7059914894       15.3046861414
atom         0.0000000000        0.9228300000        1.2377000000 H         0.0000000000         0.0000000000         1.1985950435        3.6877044748        1.7386961385
atom         0.0000000000       29.0771700000        1.2377000000 H         0.0000000000         0.0000000000         0.3333402215       -4.5837681889        2.9145534816
atom         0.0000000000        0.9228300000       28.7623000000 H         0.0000000000         0.0000000000         1.3126755745        5.4061073310       -1.9355870974
atom         0.0000000000       29.0771700000       28.7623000000 H         0.0000000000         0.0000000000        -0.9363966126       -6.1389715468       -2.9218636753
atom         1.4331200000       29.8185000000        0.0363500000 H         0.0000000000         0.0000000000        17.2131770948       -2.7591023275       -9.5879301681
atom         2.9170700000        0.1385400000       29.8763300000 H         0.0000000000         0.0000000000        12.7640594458        3.2635748758        1.3033129920
energy     -1042.1243354548
charge 0
end
begin
comment generated by PY
lattice        30.0000000000         0.0000000000         0.0000000000
lattice         0.0000000000        30.0000000000         0.0000000000
lattice         0.0000000000         0.0000000000        30.0000000000
atom         0.0000000000        0.0000000000        0.6674800000 C         0.0000000000         0.0000000000       -12.1501645971        0.6439888638       -4.3250980219
atom         0.0000000000        0.0000000000       29.3325200000 C         0.0000000000         0.0000000000        -5.7253344971       -0.3895618376        2.8014645542
atom         2.7469800000       29.9017800000        0.5324300000 O         0.0000000000         0.0000000000        17.9008195760       -1.0837765749        5.1899377540
atom         0.0000000000        0.9228300000        1.2377000000 H         0.0000000000         0.0000000000         1.2131231887        4.8803960180        2.4898012478
atom         0.0000000000       29.0771700000        1.2377000000 H         0.0000000000         0.0000000000         0.7775094368       -5.3277706494        2.8131562520
atom         0.0000000000        0.9228300000       28.7623000000 H         0.0000000000         0.0000000000         0.2170689384        5.7660824855       -2.7424526118
atom         0.0000000000       29.0771700000       28.7623000000 H         0.0000000000         0.0000000000        -0.5756373995       -6.1876984848       -3.0421474938
atom         1.9324100000       29.7832000000        0.0220100000 H         0.0000000000         0.0000000000        -8.7235977680        0.5156338535       -2.4411896126
atom         3.4163600000        0.1032400000       29.8620000000 H         0.0000000000         0.0000000000         7.0662131219        1.1827063259       -0.7434951285
energy     -1065.7471390610
charge 0
end
begin
comment generated by PY
lattice        30.0000000000         0.0000000000         0.0000000000
lattice         0.0000000000        30.0000000000         0.0000000000
lattice         0.0000000000         0.0000000000        30.0000000000
atom         0.0000000000        0.0000000000        0.6674800000 C         0.0000000000         0.0000000000        -0.7922220664       -0.0180102880       -5.2296480176
atom         0.0000000000        0.0000000000       29.3325200000 C         0.0000000000         0.0000000000         0.9231137369       -0.2057923305        4.7392654642
atom         3.2462800000       29.8664900000        0.5181000000 O         0.0000000000         0.0000000000         5.2902741984       -0.5485643161        4.3380811104
atom         0.0000000000        0.9228300000        1.2377000000 H         0.0000000000         0.0000000000         0.5106758357        5.3731768685        2.7731923223
atom         0.0000000000       29.0771700000        1.2377000000 H         0.0000000000         0.0000000000         0.1958532343       -5.6381886862        2.9568465267
atom         0.0000000000        0.9228300000       28.7623000000 H         0.0000000000         0.0000000000        -0.1672812153        5.8730834283       -2.9193731361
atom         0.0000000000       29.0771700000       28.7623000000 H         0.0000000000         0.0000000000        -0.5832243198       -6.1457974691       -3.0979078988
atom         2.4317000000       29.7479100000        0.0076800000 H         0.0000000000         0.0000000000       -10.4791742276        0.2657266947       -1.6163138102
atom         3.9156500000        0.0679400000       29.8476700000 H         0.0000000000         0.0000000000         5.1019848238        1.0443891589       -1.9441425607
energy     -1068.7461760132
charge 0
end
begin
comment generated by PY
lattice        30.0000000000         0.0000000000         0.0000000000
lattice         0.0000000000        30.0000000000         0.0000000000
lattice         0.0000000000         0.0000000000        30.0000000000
atom         0.0000000000        0.0000000000        0.6674800000 C         0.0000000000         0.0000000000         0.9530924493       -0.0779677128       -5.9375607205
atom         0.0000000000        0.0000000000       29.3325200000 C         0.0000000000         0.0000000000         1.6209720409       -0.0938794910        5.7131815883
atom         3.7455700000       29.8311900000        0.5037600000 O         0.0000000000         0.0000000000         2.2742543055       -0.4554458232        4.2514426315
atom         0.0000000000        0.9228300000        1.2377000000 H         0.0000000000         0.0000000000         0.2023101877        5.5577765553        2.8694009286
atom         0.0000000000       29.0771700000        1.2377000000 H         0.0000000000         0.0000000000         0.0075407992       -5.7145191001        2.9822361900
atom         0.0000000000        0.9228300000       28.7623000000 H         0.0000000000         0.0000000000        -0.2247019798        5.8848904288       -2.9548402590
atom         0.0000000000       29.0771700000       28.7623000000 H         0.0000000000         0.0000000000        -0.4595044797       -6.0574986307       -3.0638474694
atom         2.9309900000       29.7126100000       29.9933500000 H         0.0000000000         0.0000000000        -8.9168682209       -0.1498705015       -1.4682189708
atom         4.4149400000        0.0326500000       29.8333400000 H         0.0000000000         0.0000000000         4.5429048978        1.1065142753       -2.3918169793
energy     -1067.8125872530
charge 0
end
begin
comment generated by PY
lattice        30.0000000000         0.0000000000         0.0000000000
lattice         0.0000000000        30.0000000000         0.0000000000
lattice         0.0000000000         0.0000000000        30.0000000000
atom         0.0000000000        0.0000000000        0.6674800000 C         0.0000000000         0.0000000000         0.7393903509       -0.0387647812       -6.4479828902
atom         0.0000000000        0.0000000000       29.3325200000 C         0.0000000000         0.0000000000         1.0995499898       -0.0184714990        6.3242630501
atom         4.2448600000       29.7958900000        0.4894300000 O         0.0000000000         0.0000000000         1.3394027496       -0.4038824379        4.2769245371
atom         0.0000000000        0.9228300000        1.2377000000 H         0.0000000000         0.0000000000         0.0791899219        5.6442997314        2.9045452038
atom         0.0000000000       29.0771700000        1.2377000000 H         0.0000000000         0.0000000000        -0.0380499042       -5.7360345914        2.9764479925
atom         0.0000000000        0.9228300000       28.7623000000 H         0.0000000000         0.0000000000        -0.1971446250        5.8737983053       -2.9615969995
atom         0.0000000000       29.0771700000       28.7623000000 H         0.0000000000         0.0000000000        -0.3406504152       -5.9823443047       -3.0302943721
atom         3.4302800000       29.6773100000       29.9790200000 H         0.0000000000         0.0000000000        -7.1032022409       -0.4832107230       -1.4866904698
atom         4.9142300000       29.9973500000       29.8190000000 H         0.0000000000         0.0000000000         4.4215141731        1.1446103006       -2.5556391123
energy     -1066.9212225868
charge 0
end
begin
comment generated by PY
lattice        30.0000000000         0.0000000000         0.0000000000
lattice         0.0000000000        30.0000000000         0.0000000000
lattice         0.0000000000         0.0000000000        30.0000000000
atom         0.0000000000        0.0000000000        0.6674800000 C         0.0000000000         0.0000000000         0.4538777060       -0.0189327099       -6.8163059631
atom         0.0000000000        0.0000000000       29.3325200000 C         0.0000000000         0.0000000000         0.6940533135        0.0057881976        6.7497993426
atom         4.7441500000       29.7606000000        0.4751000000 O         0.0000000000         0.0000000000         1.0196682514       -0.3717590945        4.2661783217
atom         0.0000000000        0.9228300000        1.2377000000 H         0.0000000000         0.0000000000         0.0300709546        5.6808045789        2.9213102222
atom         0.0000000000       29.0771700000        1.2377000000 H         0.0000000000         0.0000000000        -0.0412091993       -5.7404160955        2.9681923163
atom         0.0000000000        0.9228300000       28.7623000000 H         0.0000000000         0.0000000000        -0.1594867501        5.8496539115       -2.9519346299
atom         0.0000000000       29.0771700000       28.7623000000 H         0.0000000000         0.0000000000        -0.2497687955       -5.9229864542       -2.9950347942
atom         3.9295800000       29.6420200000       29.9646800000 H         0.0000000000         0.0000000000        -6.1498561255       -0.6476093698       -1.5241177392
atom         5.4135300000       29.9620500000       29.8046700000 H         0.0000000000         0.0000000000         4.4026506448        1.1654570360       -2.6180640158
energy     -1066.4087828497
charge 0
end
begin
comment generated by PY
lattice        30.0000000000         0.0000000000         0.0000000000
lattice         0.0000000000        30.0000000000         0.0000000000
lattice         0.0000000000         0.0000000000        30.0000000000
atom         0.0000000000        0.0000000000        0.6674800000 C         0.0000000000         0.0000000000         0.2778334824       -0.0075177387       -7.0276558856
atom         0.0000000000        0.0000000000       29.3325200000 C         0.0000000000         0.0000000000         0.4467981177        0.0147356902        6.9772685882
atom         5.2434500000       29.7253000000        0.4607600000 O         0.0000000000         0.0000000000         0.8566071165       -0.3646795063        4.3059577670
atom         0.0000000000        0.9228300000        1.2377000000 H         0.0000000000         0.0000000000         0.0092472798        5.7113828656        2.9270753592
atom         0.0000000000       29.0771700000        1.2377000000 H         0.0000000000         0.0000000000        -0.0354671228       -5.7461351115        2.9585991283
atom         0.0000000000        0.9228300000       28.7623000000 H         0.0000000000         0.0000000000        -0.1249881702        5.8380313953       -2.9539408976
atom         0.0000000000       29.0771700000       28.7623000000 H         0.0000000000         0.0000000000        -0.1836772649       -5.8831147666       -2.9813137681
atom         4.4288700000       29.6067200000       29.9503500000 H         0.0000000000         0.0000000000        -5.6701044847       -0.7410045893       -1.5570482018
atom         5.9128200000       29.9267600000       29.7903400000 H         0.0000000000         0.0000000000         4.4237279857        1.1782787007       -2.6489420896
energy     -1066.1320016201
charge 0
end
begin
comment generated by PY
lattice        30.0000000000         0.0000000000         0.0000000000
lattice         0.0000000000        30.0000000000         0.0000000000
lattice         0.0000000000         0.0000000000        30.0000000000
atom         0.0000000000        0.0000000000        0.6674800000 C         0.0000000000         0.0000000000         0.1738304109       -0.0042431408       -7.1668954745
atom         0.0000000000        0.0000000000       29.3325200000 C         0.0000000000         0.0000000000         0.2949674696        0.0143897820        7.1208435601
atom         5.7427400000       29.6900000000        0.4464300000 O         0.0000000000         0.0000000000         0.7607674789       -0.3454931303        4.3444227611
atom         0.0000000000        0.9228300000        1.2377000000 H         0.0000000000         0.0000000000         0.0012683301        5.7276405519        2.9252535759
atom         0.0000000000       29.0771700000        1.2377000000 H         0.0000000000         0.0000000000        -0.0278802025       -5.7518541274        2.9470688543
atom         0.0000000000        0.9228300000       28.7623000000 H         0.0000000000         0.0000000000        -0.0962086063        5.8244256720       -2.9539178371
atom         0.0000000000       29.0771700000       28.7623000000 H         0.0000000000         0.0000000000        -0.1358266278       -5.8563645310       -2.9717667012
atom         4.9281600000       29.5714300000       29.9360200000 H         0.0000000000         0.0000000000        -5.3904953400       -0.7827211206       -1.5815385038
atom         6.4121100000       29.8914600000       29.7760000000 H         0.0000000000         0.0000000000         4.4195770871        1.1742200442       -2.6634471743
energy     -1065.9844201085
charge 0
end
begin
comment generated by PY
lattice        30.0000000000         0.0000000000         0.0000000000
lattice         0.0000000000        30.0000000000         0.0000000000
lattice         0.0000000000         0.0000000000        30.0000000000
atom         0.0000000000        0.0000000000        0.6674800000 C         0.0000000000         0.0000000000         0.1142880759       -0.0019140255       -7.2357542708
atom         0.0000000000        0.0000000000       29.3325200000 C         0.0000000000         0.0000000000         0.2035093362        0.0132367546        7.2100878809
atom         6.2420300000       29.6547100000        0.4321000000 O         0.0000000000         0.0000000000         0.7068980388       -0.3415036555        4.3240141761
atom         0.0000000000        0.9228300000        1.2377000000 H         0.0000000000         0.0000000000        -0.0037127482        5.7398395818        2.9324484669
atom         0.0000000000       29.0771700000        1.2377000000 H         0.0000000000         0.0000000000        -0.0231066691       -5.7552209674        2.9478990340
atom         0.0000000000        0.9228300000       28.7623000000 H         0.0000000000         0.0000000000        -0.0763073534        5.8151322711       -2.9450395261
atom         0.0000000000       29.0771700000       28.7623000000 H         0.0000000000         0.0000000000        -0.1035879817       -5.8363018542       -2.9569157083
atom         5.4274500000       29.5361300000       29.9216800000 H         0.0000000000         0.0000000000        -5.2588196109       -0.8160436125       -1.6042762041
atom         6.9114000000       29.8561700000       29.7616700000 H         0.0000000000         0.0000000000         4.4408389123        1.1827524470       -2.6724638486
energy     -1065.9030177577
charge 0
end
begin
comment generated by PY
lattice        30.0000000000         0.0000000000         0.0000000000
lattice         0.0000000000        30.0000000000         0.0000000000
lattice         0.0000000000         0.0000000000        30.0000000000
atom         0.0000000000        0.0000000000        0.6674800000 C         0.0000000000         0.0000000000         0.0813806739       -0.0006456953       -7.2811835504
atom         0.0000000000        0.0000000000       29.3325200000 C         0.0000000000         0.0000000000         0.1481870815        0.0115763951        7.2642571082
atom         6.7413200000       29.6194100000        0.4177700000 O         0.0000000000         0.0000000000         0.6674414411       -0.3332941004        4.3232762386
atom         0.0000000000        0.9228300000        1.2377000000 H         0.0000000000         0.0000000000        -0.0049118967        5.7462273536        2.9330711017
atom         0.0000000000       29.0771700000        1.2377000000 H         0.0000000000         0.0000000000        -0.0182639540       -5.7558897233        2.9442785280
atom         0.0000000000        0.9228300000       28.7623000000 H         0.0000000000         0.0000000000        -0.0600266065        5.8058388703       -2.9394127524
atom         0.0000000000       29.0771700000       28.7623000000 H         0.0000000000         0.0000000000        -0.0793513457       -5.8199058045       -2.9475070047
atom         5.9267500000       29.5008300000       29.9073500000 H         0.0000000000         0.0000000000        -5.1716968605       -0.8303180917       -1.6180894724
atom         7.4107000000       29.8208700000       29.7473400000 H         0.0000000000         0.0000000000         4.4372645274        1.1764107963       -2.6786901965
energy     -1065.8578306139
charge 0
end
begin
comment generated by PY
lattice        30.0000000000         0.0000000000         0.0000000000
lattice         0.0000000000        30.0000000000         0.0000000000
lattice         0.0000000000         0.0000000000        30.0000000000
atom         0.0000000000        0.0000000000        0.6674800000 C         0.0000000000         0.0000000000         0.0601188487       -0.0009685430       -7.3057891552
atom         0.0000000000        0.0000000000       29.3325200000 C         0.0000000000         0.0000000000         0.1108289937        0.0089474926        7.2890702578
atom         7.2406100000       29.5841200000        0.4034300000 O         0.0000000000         0.0000000000         0.6332426484       -0.3307343796        4.3412173449
atom         0.0000000000        0.9228300000        1.2377000000 H         0.0000000000         0.0000000000        -0.0055806526        5.7533300024        2.9325407091
atom         0.0000000000       29.0771700000        1.2377000000 H         0.0000000000         0.0000000000        -0.0149432351       -5.7610552860        2.9408194458
atom         0.0000000000        0.9228300000       28.7623000000 H         0.0000000000         0.0000000000        -0.0482657270        5.8010883974       -2.9412114751
atom         0.0000000000       29.0771700000       28.7623000000 H         0.0000000000         0.0000000000        -0.0621020558       -5.8121343999       -2.9467921277
atom         6.4260400000       29.4655400000       29.8930200000 H         0.0000000000         0.0000000000        -5.1214709869       -0.8423326372       -1.6333786157
atom         7.9099900000       29.7855700000       29.7330100000 H         0.0000000000         0.0000000000         4.4481721666        1.1838593533       -2.6764763839
energy     -1065.8301925471
charge 0
end
