begin
comment generated by PY
lattice        30.0000000000         0.0000000000         0.0000000000
lattice         0.0000000000        30.0000000000         0.0000000000
lattice         0.0000000000         0.0000000000        30.0000000000
atom         1.7484000000       29.9723700000        0.5610900000 O         0.0000000000         0.0000000000       181.9264208343        2.8843622867      -29.3424684033
atom         0.0000000000        0.0000000000        0.6674800000 C         0.0000000000         0.0000000000       -69.0547523986       16.1725331920      -21.6868696388
atom         0.0000000000        0.0000000000       29.3325200000 C         0.0000000000         0.0000000000      -103.8301798859       -6.1379747743      -10.3348963740
atom         0.0000000000        0.9228300000        1.2377000000 H         0.0000000000         0.0000000000        -5.9793583117     -102.4201429722      -63.8355404516
atom         0.0000000000       29.0771700000        1.2377000000 H         0.0000000000         0.0000000000        -1.3798354970      103.9724461806      -65.6650020787
atom         0.0000000000        0.9228300000       28.7623000000 H         0.0000000000         0.0000000000         5.2515996562     -100.4909689124       66.2334505828
atom         0.0000000000       29.0771700000       28.7623000000 H         0.0000000000         0.0000000000         1.1999794922      101.2610081789       66.7937568102
atom         0.9338200000       29.8538000000        0.0506800000 H         0.0000000000         0.0000000000        81.1120921048        0.7293248659      -22.5878219448
atom         2.4177700000        0.1738300000       29.8906700000 H         0.0000000000         0.0000000000       -89.2453829337      -15.9707680453       80.4249914983
energy     -1274.4177440501
charge 0
end
begin
comment generated by PY
lattice        30.0000000000         0.0000000000         0.0000000000
lattice         0.0000000000        30.0000000000         0.0000000000
lattice         0.0000000000         0.0000000000        30.0000000000
atom         2.2476900000       29.9370800000        0.5467600000 O         0.0000000000         0.0000000000        37.0043134668        7.7942085106     -130.3473138586
atom         0.0000000000        0.0000000000        0.6674800000 C         0.0000000000         0.0000000000       -32.3332170766        2.6203911122      -50.0855214141
atom         0.0000000000        0.0000000000       29.3325200000 C         0.0000000000         0.0000000000       -22.9925471577       -2.1641442412       44.6935305409
atom         0.0000000000        0.9228300000        1.2377000000 H         0.0000000000         0.0000000000         2.7036250435     -100.1402955252      -61.8596038615
atom         0.0000000000       29.0771700000        1.2377000000 H         0.0000000000         0.0000000000         3.0310202215       99.5872318111      -61.7080465184
atom         0.0000000000        0.9228300000       28.7623000000 H         0.0000000000         0.0000000000         2.6406955745      -98.4878926690       61.5957129026
atom         0.0000000000       29.0771700000       28.7623000000 H         0.0000000000         0.0000000000         1.1634033874       98.0440284532       61.4762363247
atom         1.4331200000       29.8185000000        0.0363500000 H         0.0000000000         0.0000000000        99.0032770948       18.9330976725       49.3640698319
atom         2.9170700000        0.1385400000       29.8763300000 H         0.0000000000         0.0000000000       -90.2209405542      -26.1874251242       86.8711129920
energy     -1324.6241054548
charge 0
end
begin
comment generated by PY
lattice        30.0000000000         0.0000000000         0.0000000000
lattice         0.0000000000        30.0000000000         0.0000000000
lattice         0.0000000000         0.0000000000        30.0000000000
atom         2.7469800000       29.9017800000        0.5324300000 O         0.0000000000         0.0000000000        -2.2664804240        9.7371234251     -141.0630622460
atom         0.0000000000        0.0000000000        0.6674800000 C         0.0000000000         0.0000000000        -7.4857045971        0.2907158638      -50.2567980219
atom         0.0000000000        0.0000000000       29.3325200000 C         0.0000000000         0.0000000000        -3.2534344971       -0.6776308376       49.0004645542
atom         0.0000000000        0.9228300000        1.2377000000 H         0.0000000000         0.0000000000         1.4645391887      -98.3226039820      -60.3412987522
atom         0.0000000000       29.0771700000        1.2377000000 H         0.0000000000         0.0000000000         1.4362104368       97.9712293506      -60.3125437480
atom         0.0000000000        0.9228300000       28.7623000000 H         0.0000000000         0.0000000000         0.6660159384      -97.7029175145       60.1979473882
atom         0.0000000000       29.0771700000       28.7623000000 H         0.0000000000         0.0000000000         0.1725246005       97.3823015152       60.1733525062
atom         1.9324100000       29.7832000000        0.0220100000 H         0.0000000000         0.0000000000       104.9124022320       19.5115338535       57.7085103874
atom         3.4163600000        0.1032400000       29.8620000000 H         0.0000000000         0.0000000000       -95.6457868781      -28.1888936741       84.8931048715
energy     -1335.4074790610
charge 0
end
begin
comment generated by PY
lattice        30.0000000000         0.0000000000         0.0000000000
lattice         0.0000000000        30.0000000000         0.0000000000
lattice         0.0000000000         0.0000000000        30.0000000000
atom         3.2462800000       29.8664900000        0.5181000000 O         0.0000000000         0.0000000000       -12.5660258016       10.0198356839     -142.3019188896
atom         0.0000000000        0.0000000000        0.6674800000 C         0.0000000000         0.0000000000        -0.4870360664       -0.0310460880      -50.0968480176
atom         0.0000000000        0.0000000000       29.3325200000 C         0.0000000000         0.0000000000         0.6420427369       -0.2137959305       49.5574654642
atom         0.0000000000        0.9228300000        1.2377000000 H         0.0000000000         0.0000000000         0.4464123357      -97.7488231315      -59.9130076777
atom         0.0000000000       29.0771700000        1.2377000000 H         0.0000000000         0.0000000000         0.2418107343       97.5198113138      -59.8130534733
atom         0.0000000000        0.9228300000       28.7623000000 H         0.0000000000         0.0000000000        -0.0283522153      -97.4859165717       59.8817268639
atom         0.0000000000       29.0771700000       28.7623000000 H         0.0000000000         0.0000000000        -0.3568873198       97.2602025309       59.7919921012
atom         2.4317000000       29.7479100000        0.0076800000 H         0.0000000000         0.0000000000       109.7308257724       18.9770266947       59.1619861898
atom         3.9156500000        0.0679400000       29.8476700000 H         0.0000000000         0.0000000000       -97.6220151762      -28.2967108411       83.7317574393
energy     -1336.6305960132
charge 0
end
begin
comment generated by PY
lattice        30.0000000000         0.0000000000         0.0000000000
lattice         0.0000000000        30.0000000000         0.0000000000
lattice         0.0000000000         0.0000000000        30.0000000000
atom         3.7455700000       29.8311900000        0.5037600000 O         0.0000000000         0.0000000000       -15.3490456945       10.0181541768     -142.6385573685
atom         0.0000000000        0.0000000000        0.6674800000 C         0.0000000000         0.0000000000         0.7067404493       -0.0562649128      -50.6717607205
atom         0.0000000000        0.0000000000       29.3325200000 C         0.0000000000         0.0000000000         1.1331760409       -0.0757193910       50.3489815883
atom         0.0000000000        0.9228300000        1.2377000000 H         0.0000000000         0.0000000000         0.1052746877      -97.5972234447      -59.8150990714
atom         0.0000000000       29.0771700000        1.2377000000 H         0.0000000000         0.0000000000        -0.0658013008       97.4584808999      -59.7304638100
atom         0.0000000000        0.9228300000       28.7623000000 H         0.0000000000         0.0000000000        -0.1652601798      -97.4551095712       59.8256597410
atom         0.0000000000       29.0771700000       28.7623000000 H         0.0000000000         0.0000000000        -0.3793948797       97.3095013693       59.7528525306
atom         2.9309900000       29.7126100000       29.9933500000 H         0.0000000000         0.0000000000       112.2281317791       18.6203294985       59.6223810292
atom         4.4149400000        0.0326500000       29.8333400000 H         0.0000000000         0.0000000000       -98.2140951022      -28.2215857247       83.3054830207
energy     -1335.9246872530
charge 0
end
begin
comment generated by PY
lattice        30.0000000000         0.0000000000         0.0000000000
lattice         0.0000000000        30.0000000000         0.0000000000
lattice         0.0000000000         0.0000000000        30.0000000000
atom         4.2448600000       29.7958900000        0.4894300000 O         0.0000000000         0.0000000000       -16.4260972504       10.0279175621     -142.7630754629
atom         0.0000000000        0.0000000000        0.6674800000 C         0.0000000000         0.0000000000         0.5530563509       -0.0241113812      -51.1648828902
atom         0.0000000000        0.0000000000       29.3325200000 C         0.0000000000         0.0000000000         0.7641229898       -0.0077992990       50.9521630501
atom         0.0000000000        0.9228300000        1.2377000000 H         0.0000000000         0.0000000000         0.0073198219      -97.5497002686      -59.7975547962
atom         0.0000000000       29.0771700000        1.2377000000 H         0.0000000000         0.0000000000        -0.1066085042       97.4669654086      -59.7390520075
atom         0.0000000000        0.9228300000       28.7623000000 H         0.0000000000         0.0000000000        -0.1503641250      -97.4622016947       59.8169030005
atom         0.0000000000       29.0771700000       28.7623000000 H         0.0000000000         0.0000000000        -0.2892924152       97.3706556953       59.7687056279
atom         3.4302800000       29.6773100000       29.9790200000 H         0.0000000000         0.0000000000       113.9987977591       18.3523892770       59.7728095302
atom         4.9142300000       29.9973500000       29.8190000000 H         0.0000000000         0.0000000000       -98.3504858269      -28.1743896994       83.1545608877
energy     -1335.3828925868
charge 0
end
begin
comment generated by PY
lattice        30.0000000000         0.0000000000         0.0000000000
lattice         0.0000000000        30.0000000000         0.0000000000
lattice         0.0000000000         0.0000000000        30.0000000000
atom         4.7441500000       29.7606000000        0.4751000000 O         0.0000000000         0.0000000000       -16.8848317486       10.0368409055     -142.8688216783
atom         0.0000000000        0.0000000000        0.6674800000 C         0.0000000000         0.0000000000         0.3563674060       -0.0116806699      -51.5248059631
atom         0.0000000000        0.0000000000       29.3325200000 C         0.0000000000         0.0000000000         0.4844673135        0.0096617576       51.3880993426
atom         0.0000000000        0.9228300000        1.2377000000 H         0.0000000000         0.0000000000        -0.0157583454      -97.5411954211      -59.7947897778
atom         0.0000000000       29.0771700000        1.2377000000 H         0.0000000000         0.0000000000        -0.0872054993       97.4865839045      -59.7567076837
atom         0.0000000000        0.9228300000       28.7623000000 H         0.0000000000         0.0000000000        -0.1126383501      -97.4803460885       59.8232653701
atom         0.0000000000       29.0771700000       28.7623000000 H         0.0000000000         0.0000000000        -0.2009735955       97.4180135458       59.7948652058
atom         3.9295800000       29.6420200000       29.9646800000 H         0.0000000000         0.0000000000       114.8381438745       18.2281906302       59.8381822608
atom         5.4135300000       29.9620500000       29.8046700000 H         0.0000000000         0.0000000000       -98.3773493552      -28.1463429640       83.1005359842
energy     -1335.0860528497
charge 0
end
begin
comment generated by PY
lattice        30.0000000000         0.0000000000         0.0000000000
lattice         0.0000000000        30.0000000000         0.0000000000
lattice         0.0000000000         0.0000000000        30.0000000000
atom         5.2434500000       29.7253000000        0.4607600000 O         0.0000000000         0.0000000000       -17.1327928835       10.0331204937     -142.8910422330
atom         0.0000000000        0.0000000000        0.6674800000 C         0.0000000000         0.0000000000         0.2283983824       -0.0043672987      -51.7275558856
atom         0.0000000000        0.0000000000       29.3325200000 C         0.0000000000         0.0000000000         0.3078251177        0.0151026302       51.6247685882
atom         0.0000000000        0.9228300000        1.2377000000 H         0.0000000000         0.0000000000        -0.0178922202      -97.5296171344      -59.7981246408
atom         0.0000000000       29.0771700000        1.2377000000 H         0.0000000000         0.0000000000        -0.0628006228       97.4978648885      -59.7736008717
atom         0.0000000000        0.9228300000       28.7623000000 H         0.0000000000         0.0000000000        -0.0780751702      -97.4839686047       59.8157591024
atom         0.0000000000       29.0771700000       28.7623000000 H         0.0000000000         0.0000000000        -0.1347658649       97.4458852334       59.8001862319
atom         4.4288700000       29.6067200000       29.9503500000 H         0.0000000000         0.0000000000       115.2518955153       18.1574954107       59.8691517982
atom         5.9128200000       29.9267600000       29.7903400000 H         0.0000000000         0.0000000000       -98.3612720143      -28.1322212993       83.0805579104
energy     -1334.9204616201
charge 0
end
begin
comment generated by PY
lattice        30.0000000000         0.0000000000         0.0000000000
lattice         0.0000000000        30.0000000000         0.0000000000
lattice         0.0000000000         0.0000000000        30.0000000000
atom         5.7427400000       29.6900000000        0.4464300000 O         0.0000000000         0.0000000000       -17.2820325211       10.0428068697     -142.8975772389
atom         0.0000000000        0.0000000000        0.6674800000 C         0.0000000000         0.0000000000         0.1427496109       -0.0030753908      -51.8587954745
atom         0.0000000000        0.0000000000       29.3325200000 C         0.0000000000         0.0000000000         0.1916594696        0.0132658420       51.7756435601
atom         0.0000000000        0.9228300000        1.2377000000 H         0.0000000000         0.0000000000        -0.0127248699      -97.5273594481      -59.8059464241
atom         0.0000000000       29.0771700000        1.2377000000 H         0.0000000000         0.0000000000        -0.0416437025       97.5051458726      -59.7901311457
atom         0.0000000000        0.9228300000       28.7623000000 H         0.0000000000         0.0000000000        -0.0506969063      -97.4885743280       59.8096821629
atom         0.0000000000       29.0771700000       28.7623000000 H         0.0000000000         0.0000000000        -0.0879766278       97.4626354690       59.8017332988
atom         4.9281600000       29.5714300000       29.9360200000 H         0.0000000000         0.0000000000       115.5045046600       18.1278788794       59.8930614962
atom         6.4121100000       29.8914600000       29.7760000000 H         0.0000000000         0.0000000000       -98.3634229129      -28.1322799558       83.0723528257
energy     -1334.8249301085
charge 0
end
begin
comment generated by PY
lattice        30.0000000000         0.0000000000         0.0000000000
lattice         0.0000000000        30.0000000000         0.0000000000
lattice         0.0000000000         0.0000000000        30.0000000000
atom         6.2420300000       29.6547100000        0.4321000000 O         0.0000000000         0.0000000000       -17.3621019612       10.0377963445     -142.9549858239
atom         0.0000000000        0.0000000000        0.6674800000 C         0.0000000000         0.0000000000         0.0863287759       -0.0016606655      -51.9209542708
atom         0.0000000000        0.0000000000       29.3325200000 C         0.0000000000         0.0000000000         0.1179350362        0.0116233046       51.8705878809
atom         0.0000000000        0.9228300000        1.2377000000 H         0.0000000000         0.0000000000        -0.0078926482      -97.5241604182      -59.8028515331
atom         0.0000000000       29.0771700000        1.2377000000 H         0.0000000000         0.0000000000        -0.0266540391       97.5107790326      -59.7928009660
atom         0.0000000000        0.9228300000       28.7623000000 H         0.0000000000         0.0000000000        -0.0332019534      -97.4898677289       59.8127604739
atom         0.0000000000       29.0771700000       28.7623000000 H         0.0000000000         0.0000000000        -0.0578412817       97.4726981458       59.8093842917
atom         5.4274500000       29.5361300000       29.9216800000 H         0.0000000000         0.0000000000       115.6251803891       18.1039563875       59.9080237959
atom         6.9114000000       29.8561700000       29.7616700000 H         0.0000000000         0.0000000000       -98.3411610877      -28.1210475530       83.0702361514
energy     -1334.7676277577
charge 0
end
begin
comment generated by PY
lattice        30.0000000000         0.0000000000         0.0000000000
lattice         0.0000000000        30.0000000000         0.0000000000
lattice         0.0000000000         0.0000000000        30.0000000000
atom         6.7413200000       29.6194100000        0.4177700000 O         0.0000000000         0.0000000000       -17.4228585589       10.0379058996     -142.9877237614
atom         0.0000000000        0.0000000000        0.6674800000 C         0.0000000000         0.0000000000         0.0502562739       -0.0007968493      -51.9612835504
atom         0.0000000000        0.0000000000       29.3325200000 C         0.0000000000         0.0000000000         0.0722639815        0.0099467551       51.9293571082
atom         0.0000000000        0.9228300000        1.2377000000 H         0.0000000000         0.0000000000        -0.0014601667      -97.5247726464      -59.8050288983
atom         0.0000000000       29.0771700000        1.2377000000 H         0.0000000000         0.0000000000        -0.0138020940       97.5171102767      -59.7987214720
atom         0.0000000000        0.9228300000       28.7623000000 H         0.0000000000         0.0000000000        -0.0200190065      -97.4921611297       59.8134872476
atom         0.0000000000       29.0771700000       28.7623000000 H         0.0000000000         0.0000000000        -0.0364158457       97.4810941955       59.8127929953
atom         5.9267500000       29.5008300000       29.9073500000 H         0.0000000000         0.0000000000       115.7143031395       18.0960819083       59.9286105276
atom         7.4107000000       29.8208700000       29.7473400000 H         0.0000000000         0.0000000000       -98.3427354726      -28.1241892037       83.0683098035
energy     -1334.7347906139
charge 0
end
begin
comment generated by PY
lattice        30.0000000000         0.0000000000         0.0000000000
lattice         0.0000000000        30.0000000000         0.0000000000
lattice         0.0000000000         0.0000000000        30.0000000000
atom         7.2406100000       29.5841200000        0.4034300000 O         0.0000000000         0.0000000000       -17.4678573516       10.0338656204     -143.0007826551
atom         0.0000000000        0.0000000000        0.6674800000 C         0.0000000000         0.0000000000         0.0244824487       -0.0012743630      -51.9821891552
atom         0.0000000000        0.0000000000       29.3325200000 C         0.0000000000         0.0000000000         0.0417730937        0.0075260326       51.9574702578
atom         0.0000000000        0.9228300000        1.2377000000 H         0.0000000000         0.0000000000         0.0036451574      -97.5226699976      -59.8074592909
atom         0.0000000000       29.0771700000        1.2377000000 H         0.0000000000         0.0000000000        -0.0043284351       97.5169447140      -59.8035805542
atom         0.0000000000        0.9228300000       28.7623000000 H         0.0000000000         0.0000000000        -0.0120547270      -97.4919116026       59.8078885249
atom         0.0000000000       29.0771700000       28.7623000000 H         0.0000000000         0.0000000000        -0.0226846558       97.4828656001       59.8085078723
atom         6.4260400000       29.4655400000       29.8930200000 H         0.0000000000         0.0000000000       115.7705290131       18.0887673628       59.9415213843
atom         7.9099900000       29.7855700000       29.7330100000 H         0.0000000000         0.0000000000       -98.3338278334      -28.1140406467       83.0789236161
energy     -1334.7154425471
charge 0
end
