begin
comment generated by PY
lattice        30.0000000000         0.0000000000         0.0000000000
lattice         0.0000000000        30.0000000000         0.0000000000
lattice         0.0000000000         0.0000000000        30.0000000000
atom         1.5000000000        1.7000000000        2.6000000000 C         0.0000000000         0.0000000000      -132.1680026673       -0.0011760879     -141.5585806655
atom         1.5000000000        1.7000000000        3.7786600000 O         0.0000000000         0.0000000000      -355.5846336718        0.0041278381      142.1809156747
atom         1.5000000000        1.7000000000        1.4213400000 O         0.0000000000         0.0000000000       -20.5120346091        0.0049349573       10.9560433000
atom         3.3555300000        1.7000000000        3.2831900000 O         0.0000000000         0.0000000000       231.4824727616       -0.0179411064      -68.6755572495
atom         3.5569100000        1.7000000000        2.3357900000 H         0.0000000000         0.0000000000        38.2425750986        0.0035282638        0.7446942770
atom         2.3875600000        1.7000000000        3.3169900000 H         0.0000000000         0.0000000000       238.5396230881        0.0065261351       56.3524846634
energy      -706.7351690295
charge 0
end
begin
comment generated by PY
lattice        30.0000000000         0.0000000000         0.0000000000
lattice         0.0000000000        30.0000000000         0.0000000000
lattice         0.0000000000         0.0000000000        30.0000000000
atom         1.5000000000        1.7000000000        2.6000000000 C         0.0000000000         0.0000000000       -50.5170591100       -0.0028133869      -46.1127019847
atom         1.5000000000        1.7000000000        3.7786600000 O         0.0000000000         0.0000000000       -72.2182569984        0.0018217833       22.1279563899
atom         1.5000000000        1.7000000000        1.4213400000 O         0.0000000000         0.0000000000        -3.6969978757        0.0026750236       13.8477898996
atom         3.7737200000        1.7000000000        3.2831900000 O         0.0000000000         0.0000000000        50.5554549225       -0.0065722562      -15.1706121152
atom         3.9750900000        1.7000000000        2.3357900000 H         0.0000000000         0.0000000000        13.1423907965        0.0016372989       -2.7635760738
atom         2.8057400000        1.7000000000        3.3169900000 H         0.0000000000         0.0000000000        62.7344682652        0.0032284767       28.0711669447
energy      -823.0297142036
charge 0
end
begin
comment generated by PY
lattice        30.0000000000         0.0000000000         0.0000000000
lattice         0.0000000000        30.0000000000         0.0000000000
lattice         0.0000000000         0.0000000000        30.0000000000
atom         1.5000000000        1.7000000000        2.6000000000 C         0.0000000000         0.0000000000       -17.4455351766       -0.0014528145      -18.8692703503
atom         1.5000000000        1.7000000000        3.7786600000 O         0.0000000000         0.0000000000       -11.3871371845        0.0028595080        3.6824236093
atom         1.5000000000        1.7000000000        1.4213400000 O         0.0000000000         0.0000000000        -0.1585873887        0.0034360217        9.6921177240
atom         4.1919000000        1.7000000000        3.2831900000 O         0.0000000000         0.0000000000        11.8051787989       -0.0128216647       -2.4189592443
atom         4.3932700000        1.7000000000        2.3357900000 H         0.0000000000         0.0000000000         5.3591329947        0.0034360217       -4.5683406823
atom         3.2239200000        1.7000000000        3.3169900000 H         0.0000000000         0.0000000000        11.8269479562        0.0045429280       12.4820289436
energy      -851.0507555881
charge 0
end
begin
comment generated by PY
lattice        30.0000000000         0.0000000000         0.0000000000
lattice         0.0000000000        30.0000000000         0.0000000000
lattice         0.0000000000         0.0000000000        30.0000000000
atom         1.5000000000        1.7000000000        2.6000000000 C         0.0000000000         0.0000000000        -6.9470362097       -0.0010377247       -8.5856956909
atom         1.5000000000        1.7000000000        3.7786600000 O         0.0000000000         0.0000000000         0.3293738073        0.0026750236       -0.8200561479
atom         1.5000000000        1.7000000000        1.4213400000 O         0.0000000000         0.0000000000         0.6446576197        0.0039202932        6.8736575460
atom         4.6100800000        1.7000000000        3.2831900000 O         0.0000000000         0.0000000000         3.2734909114       -0.0131675729        1.1830061130
atom         4.8114500000        1.7000000000        2.3357900000 H         0.0000000000         0.0000000000         3.3652949530        0.0035743849       -5.1000477378
atom         3.6421000000        1.7000000000        3.3169900000 H         0.0000000000         0.0000000000        -0.6658041422        0.0040355959        6.4491359176
energy      -856.9516588003
charge 0
end
begin
comment generated by PY
lattice        30.0000000000         0.0000000000         0.0000000000
lattice         0.0000000000        30.0000000000         0.0000000000
lattice         0.0000000000         0.0000000000        30.0000000000
atom         1.5000000000        1.7000000000        2.6000000000 C         0.0000000000         0.0000000000        -3.1202766304       -0.0022829943       -3.8508347914
atom         1.5000000000        1.7000000000        3.7786600000 O         0.0000000000         0.0000000000         2.1774461249        0.0015450567       -2.7437670630
atom         1.5000000000        1.7000000000        1.4213400000 O         0.0000000000         0.0000000000         0.6917472587        0.0027903263        5.4959742866
atom         5.0282600000        1.7000000000        3.2831900000 O         0.0000000000         0.0000000000         2.2740006395       -0.0081173129        2.4444872709
atom         5.2296400000        1.7000000000        2.3357900000 H         0.0000000000         0.0000000000         2.7827624497        0.0027903263       -5.1880006679
atom         4.0602900000        1.7000000000        3.3169900000 H         0.0000000000         0.0000000000        -4.8056567819        0.0032745978        3.8421179043
energy      -858.0901728144
charge 0
end
begin
comment generated by PY
lattice        30.0000000000         0.0000000000         0.0000000000
lattice         0.0000000000        30.0000000000         0.0000000000
lattice         0.0000000000         0.0000000000        30.0000000000
atom         1.5000000000        1.7000000000        2.6000000000 C         0.0000000000         0.0000000000        -1.9421362930        0.0001614238       -1.7512641371
atom         1.5000000000        1.7000000000        3.7786600000 O         0.0000000000         0.0000000000         1.5912700550        0.0039664143       -3.5396557566
atom         1.5000000000        1.7000000000        1.4213400000 O         0.0000000000         0.0000000000         0.6428358364        0.0050271995        4.8059335085
atom         5.4464400000        1.7000000000        3.2831900000 O         0.0000000000         0.0000000000         2.3543666493       -0.0192786181        2.9194423178
atom         5.6478200000        1.7000000000        2.3357900000 H         0.0000000000         0.0000000000         2.5825738324        0.0051194417       -5.1089721699
atom         4.4784700000        1.7000000000        3.3169900000 H         0.0000000000         0.0000000000        -5.2289100801        0.0050041389        2.6745392979
energy      -858.0190773754
charge 0
end
begin
comment generated by PY
lattice        30.0000000000         0.0000000000         0.0000000000
lattice         0.0000000000        30.0000000000         0.0000000000
lattice         0.0000000000         0.0000000000        30.0000000000
atom         1.5000000000        1.7000000000        2.6000000000 C         0.0000000000         0.0000000000        -1.4384478033       -0.0030670529       -0.7299816473
atom         1.5000000000        1.7000000000        3.7786600000 O         0.0000000000         0.0000000000         1.0405611079        0.0006687559       -4.0114515083
atom         1.5000000000        1.7000000000        1.4213400000 O         0.0000000000         0.0000000000         0.5357887725        0.0017295411        4.5087752868
atom         5.8646200000        1.7000000000        3.2831900000 O         0.0000000000         0.0000000000         2.5451465630       -0.0032745978        3.1308383614
atom         6.0660000000        1.7000000000        2.3357900000 H         0.0000000000         0.0000000000         2.4989793459        0.0018448438       -5.0338639650
atom         4.8966500000        1.7000000000        3.3169900000 H         0.0000000000         0.0000000000        -5.1820279860        0.0020985099        2.1356834725
energy      -857.9237155525
charge 0
end
begin
comment generated by PY
lattice        30.0000000000         0.0000000000         0.0000000000
lattice         0.0000000000        30.0000000000         0.0000000000
lattice         0.0000000000         0.0000000000        30.0000000000
atom         1.5000000000        1.7000000000        2.6000000000 C         0.0000000000         0.0000000000        -1.0913634952        0.0009454825       -0.2318968708
atom         1.5000000000        1.7000000000        3.7786600000 O         0.0000000000         0.0000000000         0.6956444913        0.0046582307       -4.2683690737
atom         1.5000000000        1.7000000000        1.4213400000 O         0.0000000000         0.0000000000         0.4380120489        0.0058343186        4.3785523721
atom         6.2828100000        1.7000000000        3.2831900000 O         0.0000000000         0.0000000000         2.6062339547       -0.0236601223        3.2428203826
atom         6.4841800000        1.7000000000        2.3357900000 H         0.0000000000         0.0000000000         2.4459400854        0.0060649241       -4.9722000596
atom         5.3148300000        1.7000000000        3.3169900000 H         0.0000000000         0.0000000000        -5.0944670852        0.0061802269        1.8510932495
energy      -857.8906229742
charge 0
end
begin
comment generated by PY
lattice        30.0000000000         0.0000000000         0.0000000000
lattice         0.0000000000        30.0000000000         0.0000000000
lattice         0.0000000000         0.0000000000        30.0000000000
atom         1.5000000000        1.7000000000        2.6000000000 C         0.0000000000         0.0000000000        -0.8524562178       -0.0036205060        0.0113688502
atom         1.5000000000        1.7000000000        3.7786600000 O         0.0000000000         0.0000000000         0.4787830978        0.0001153027       -4.4375181934
atom         1.5000000000        1.7000000000        1.4213400000 O         0.0000000000         0.0000000000         0.3599982150        0.0011299669        4.3674141275
atom         6.7009900000        1.7000000000        3.2831900000 O         0.0000000000         0.0000000000         2.6605184847       -0.0003228477        3.2965283989
atom         6.9023600000        1.7000000000        2.3357900000 H         0.0000000000         0.0000000000         2.4241709281        0.0010838458       -4.9326973409
atom         5.7330100000        1.7000000000        3.3169900000 H         0.0000000000         0.0000000000        -5.0710145079        0.0015911778        1.6949272183
energy      -857.8894466557
charge 0
end
begin
comment generated by PY
lattice        30.0000000000         0.0000000000         0.0000000000
lattice         0.0000000000        30.0000000000         0.0000000000
lattice         0.0000000000         0.0000000000        30.0000000000
atom         1.5000000000        1.7000000000        2.6000000000 C         0.0000000000         0.0000000000        -0.6762505705        0.0014066934        0.1365184442
atom         1.5000000000        1.7000000000        3.7786600000 O         0.0000000000         0.0000000000         0.3435329837        0.0051425022       -4.5333347704
atom         1.5000000000        1.7000000000        1.4213400000 O         0.0000000000         0.0000000000         0.2908165710        0.0062263480        4.3664686450
atom         7.1191700000        1.7000000000        3.2831900000 O         0.0000000000         0.0000000000         2.7115053564       -0.0261737220        3.3310730998
atom         7.3205400000        1.7000000000        2.3357900000 H         0.0000000000         0.0000000000         2.3935465204        0.0063416507       -4.9039869586
atom         6.1511900000        1.7000000000        3.3169900000 H         0.0000000000         0.0000000000        -5.0631508610        0.0070565277        1.6032615400
energy      -857.9040778816
charge 0
end
begin
comment generated by PY
lattice        30.0000000000         0.0000000000         0.0000000000
lattice         0.0000000000        30.0000000000         0.0000000000
lattice         0.0000000000         0.0000000000        30.0000000000
atom         1.5000000000        1.7000000000        2.6000000000 C         0.0000000000         0.0000000000        -0.5312227840       -0.0036435666        0.1914025485
atom         1.5000000000        1.7000000000        3.7786600000 O         0.0000000000         0.0000000000         0.2641816380        0.0000230605       -4.5723532176
atom         1.5000000000        1.7000000000        1.4213400000 O         0.0000000000         0.0000000000         0.2453872914        0.0011530274        4.3762232568
atom         7.5373500000        1.7000000000        3.2831900000 O         0.0000000000         0.0000000000         2.7072852761        0.0002075449        3.3346705453
atom         7.7387300000        1.7000000000        2.3357900000 H         0.0000000000         0.0000000000         2.3895109245        0.0006226348       -4.8819410747
atom         6.5693800000        1.7000000000        3.3169900000 H         0.0000000000         0.0000000000        -5.0751192854        0.0016603595        1.5520210023
energy      -857.9218038330
charge 0
end
begin
comment generated by PY
lattice        30.0000000000         0.0000000000         0.0000000000
lattice         0.0000000000        30.0000000000         0.0000000000
lattice         0.0000000000         0.0000000000        30.0000000000
atom         1.5000000000        1.7000000000        2.6000000000 C         0.0000000000         0.0000000000        -0.4371126876        0.0011991485        0.2071067817
atom         1.5000000000        1.7000000000        3.7786600000 O         0.0000000000         0.0000000000         0.1970062617        0.0049349573       -4.5985269396
atom         1.5000000000        1.7000000000        1.4213400000 O         0.0000000000         0.0000000000         0.1953689628        0.0059957425        4.3835103900
atom         7.9555300000        1.7000000000        3.2831900000 O         0.0000000000         0.0000000000         2.7652825543       -0.0253896634        3.3658484062
atom         8.1569100000        1.7000000000        2.3357900000 H         0.0000000000         0.0000000000         2.3646977748        0.0059726819       -4.8740313067
atom         6.9875600000        1.7000000000        3.3169900000 H         0.0000000000         0.0000000000        -5.0852428660        0.0073101937        1.5160926685
energy      -857.9392366849
charge 0
end
