begin
comment generated by PY
lattice        30.0000000000         0.0000000000         0.0000000000
lattice         0.0000000000        30.0000000000         0.0000000000
lattice         0.0000000000         0.0000000000        30.0000000000
atom         0.9000000000        1.9000000000        3.1649900000 N         0.0000000000         0.0000000000      -227.9352338559        0.0038972326     -150.5209233382
atom         0.9000000000        1.9000000000        2.0350100000 N         0.0000000000         0.0000000000      -216.4867635645        0.0040125354      163.0225857254
atom         2.6987700000        1.9000000000        2.7092700000 O         0.0000000000         0.0000000000       145.1149378671       -0.0017756622     -110.4677265641
atom         1.7396300000        1.9000000000        2.5744700000 H         0.0000000000         0.0000000000       348.2130353516       -0.0049580178      -19.6641979371
atom         3.0616000000        1.9000000000        1.8112300000 H         0.0000000000         0.0000000000       -48.9061627377       -0.0011760879      117.6291821140
energy      -781.3877788689
charge 0
end
begin
comment generated by PY
lattice        30.0000000000         0.0000000000         0.0000000000
lattice         0.0000000000        30.0000000000         0.0000000000
lattice         0.0000000000         0.0000000000        30.0000000000
atom         0.9000000000        1.9000000000        3.1649900000 N         0.0000000000         0.0000000000       -66.8142003845        0.0041739592     -242.4344233545
atom         0.9000000000        1.9000000000        2.0350100000 N         0.0000000000         0.0000000000       -50.3787354711        0.0039894748      252.3913487546
atom         3.0078600000        1.9000000000        2.7092700000 O         0.0000000000         0.0000000000        -6.9317462336       -0.0043584436     -119.9498335109
atom         2.0487200000        1.9000000000        2.5744700000 H         0.0000000000         0.0000000000       181.3783282013       -0.0026519630       -8.7395602771
atom         3.3706900000        1.9000000000        1.8112300000 H         0.0000000000         0.0000000000       -57.2536461122       -0.0011530274      118.7339283879
energy      -859.5319501143
charge 0
end
begin
comment generated by PY
lattice        30.0000000000         0.0000000000         0.0000000000
lattice         0.0000000000        30.0000000000         0.0000000000
lattice         0.0000000000         0.0000000000        30.0000000000
atom         0.9000000000        1.9000000000        3.1649900000 N         0.0000000000         0.0000000000       -12.4167297116        0.0068720433     -262.1355355292
atom         0.9000000000        1.9000000000        2.0350100000 N         0.0000000000         0.0000000000        -5.4051011405        0.0012222090      266.0519062633
atom         3.3169500000        1.9000000000        2.7092700000 O         0.0000000000         0.0000000000       -51.9096538865       -0.0052116839     -119.7404937293
atom         2.3578100000        1.9000000000        2.5744700000 H         0.0000000000         0.0000000000       130.5424883151       -0.0019370860       -1.7896683520
atom         3.6797800000        1.9000000000        1.8112300000 H         0.0000000000         0.0000000000       -60.8110035765       -0.0009685430      117.6137913472
energy      -877.0243732323
charge 0
end
begin
comment generated by PY
lattice        30.0000000000         0.0000000000         0.0000000000
lattice         0.0000000000        30.0000000000         0.0000000000
lattice         0.0000000000         0.0000000000        30.0000000000
atom         0.9000000000        1.9000000000        3.1649900000 N         0.0000000000         0.0000000000         2.0916794905        0.0051425022     -264.7032446502
atom         0.9000000000        1.9000000000        2.0350100000 N         0.0000000000         0.0000000000         5.0180247432        0.0028364474      266.3274630280
atom         3.6260400000        1.9000000000        2.7092700000 O         0.0000000000         0.0000000000       -63.8215137786       -0.0052116839     -119.0859113698
atom         2.6669000000        1.9000000000        2.5744700000 H         0.0000000000         0.0000000000       118.2588766021       -0.0014758751        0.9700595434
atom         3.9888700000        1.9000000000        1.8112300000 H         0.0000000000         0.0000000000       -61.5470439967       -0.0012683301      116.4916234486
energy      -877.8764077860
charge 0
end
begin
comment generated by PY
lattice        30.0000000000         0.0000000000         0.0000000000
lattice         0.0000000000        30.0000000000         0.0000000000
lattice         0.0000000000         0.0000000000        30.0000000000
atom         0.9000000000        1.9000000000        3.1649900000 N         0.0000000000         0.0000000000         4.1166936526        0.0053731077     -264.4637204231
atom         0.9000000000        1.9000000000        2.0350100000 N         0.0000000000         0.0000000000         5.2435040634        0.0036435666      265.3050890180
atom         3.9351300000        1.9000000000        2.7092700000 O         0.0000000000         0.0000000000       -67.4010851339       -0.0060879847     -118.9044685236
atom         2.9759900000        1.9000000000        2.5744700000 H         0.0000000000         0.0000000000       119.4631906559       -0.0013605723        2.1985498821
atom         4.2979600000        1.9000000000        1.8112300000 H         0.0000000000         0.0000000000       -61.4226632380       -0.0015681173      115.8649400466
energy      -874.9572665328
charge 0
end
begin
comment generated by PY
lattice        30.0000000000         0.0000000000         0.0000000000
lattice         0.0000000000        30.0000000000         0.0000000000
lattice         0.0000000000         0.0000000000        30.0000000000
atom         0.9000000000        1.9000000000        3.1649900000 N         0.0000000000         0.0000000000         2.9560122816        0.0061802269     -264.2269693151
atom         0.9000000000        1.9000000000        2.0350100000 N         0.0000000000         0.0000000000         3.4839697959        0.0030209318      264.7475429825
atom         4.2442200000        1.9000000000        2.7092700000 O         0.0000000000         0.0000000000       -67.8681782615       -0.0062724691     -119.0558489784
atom         3.2850900000        1.9000000000        2.5744700000 H         0.0000000000         0.0000000000       122.5833707013       -0.0012222090        2.9518087557
atom         4.6070500000        1.9000000000        1.8112300000 H         0.0000000000         0.0000000000       -61.1549445173       -0.0017064806      115.5835365553
energy      -872.6043887448
charge 0
end
begin
comment generated by PY
lattice        30.0000000000         0.0000000000         0.0000000000
lattice         0.0000000000        30.0000000000         0.0000000000
lattice         0.0000000000         0.0000000000        30.0000000000
atom         0.9000000000        1.9000000000        3.1649900000 N         0.0000000000         0.0000000000         1.9366001784        0.0047965940     -264.2909225770
atom         0.9000000000        1.9000000000        2.0350100000 N         0.0000000000         0.0000000000         2.2477879285        0.0038049904      264.6648017122
atom         4.5533200000        1.9000000000        2.7092700000 O         0.0000000000         0.0000000000       -68.0878104211       -0.0059957425     -119.3425048491
atom         3.5941800000        1.9000000000        2.5744700000 H         0.0000000000         0.0000000000       124.8192168092       -0.0009685430        3.4544404609
atom         4.9161400000        1.9000000000        1.8112300000 H         0.0000000000         0.0000000000       -60.9154544951       -0.0016142384      115.5148752531
energy      -870.9219912741
charge 0
end
begin
comment generated by PY
lattice        30.0000000000         0.0000000000         0.0000000000
lattice         0.0000000000        30.0000000000         0.0000000000
lattice         0.0000000000         0.0000000000        30.0000000000
atom         0.9000000000        1.9000000000        3.1649900000 N         0.0000000000         0.0000000000         0.8466565438        0.0047274123     -264.3138031233
atom         0.9000000000        1.9000000000        2.0350100000 N         0.0000000000         0.0000000000         1.0610609682        0.0040586565      264.6100098381
atom         4.8624100000        1.9000000000        2.7092700000 O         0.0000000000         0.0000000000       -68.2883586010       -0.0059957425     -119.6342956498
atom         3.9032700000        1.9000000000        2.5744700000 H         0.0000000000         0.0000000000       127.1393652353       -0.0011069063        3.8214691018
atom         5.2252400000        1.9000000000        1.8112300000 H         0.0000000000         0.0000000000       -60.7590800858       -0.0017064806      115.5170328938
energy      -870.0207447803
charge 0
end
begin
comment generated by PY
lattice        30.0000000000         0.0000000000         0.0000000000
lattice         0.0000000000        30.0000000000         0.0000000000
lattice         0.0000000000         0.0000000000        30.0000000000
atom         0.9000000000        1.9000000000        3.1649900000 N         0.0000000000         0.0000000000         0.2361288323        0.0040355959     -264.4103977225
atom         0.9000000000        1.9000000000        2.0350100000 N         0.0000000000         0.0000000000         0.3861057349        0.0035974455      264.6413657911
atom         5.1715000000        1.9000000000        2.7092700000 O         0.0000000000         0.0000000000       -68.5042194591       -0.0054192288     -119.9021886249
atom         4.2123600000        1.9000000000        2.5744700000 H         0.0000000000         0.0000000000       128.5550174355       -0.0008532403        4.1041741151
atom         5.5343300000        1.9000000000        1.8112300000 H         0.0000000000         0.0000000000       -60.6730878436       -0.0013375118      115.5662864412
energy      -869.6500630063
charge 0
end
begin
comment generated by PY
lattice        30.0000000000         0.0000000000         0.0000000000
lattice         0.0000000000        30.0000000000         0.0000000000
lattice         0.0000000000         0.0000000000        30.0000000000
atom         0.9000000000        1.9000000000        3.1649900000 N         0.0000000000         0.0000000000        -0.0794607253        0.0036896877     -264.5079387528
atom         0.9000000000        1.9000000000        2.0350100000 N         0.0000000000         0.0000000000         0.0408733508        0.0042200803      264.6958230943
atom         5.4805900000        1.9000000000        2.7092700000 O         0.0000000000         0.0000000000       -68.7110002790       -0.0051425022     -120.1179641685
atom         4.5214500000        1.9000000000        2.5744700000 H         0.0000000000         0.0000000000       129.3721761376       -0.0012683301        4.3284924872
atom         5.8434200000        1.9000000000        1.8112300000 H         0.0000000000         0.0000000000       -60.6226334447       -0.0014989356      115.6014604004
energy      -869.5767125806
charge 0
end
begin
comment generated by PY
lattice        30.0000000000         0.0000000000         0.0000000000
lattice         0.0000000000        30.0000000000         0.0000000000
lattice         0.0000000000         0.0000000000        30.0000000000
atom         0.9000000000        1.9000000000        3.1649900000 N         0.0000000000         0.0000000000        -0.2071297283        0.0038049904     -264.5797656178
atom         0.9000000000        1.9000000000        2.0350100000 N         0.0000000000         0.0000000000        -0.1142699943        0.0044737463      264.7324550683
atom         5.7896800000        1.9000000000        2.7092700000 O         0.0000000000         0.0000000000       -68.9241476773       -0.0043815041     -120.2997061264
atom         4.8305400000        1.9000000000        2.5744700000 H         0.0000000000         0.0000000000       129.8407644751       -0.0019832071        4.5102945445
atom         6.1525100000        1.9000000000        1.8112300000 H         0.0000000000         0.0000000000       -60.5953710751       -0.0018909649      115.6370221314
energy      -869.6394688156
charge 0
end
begin
comment generated by PY
lattice        30.0000000000         0.0000000000         0.0000000000
lattice         0.0000000000        30.0000000000         0.0000000000
lattice         0.0000000000         0.0000000000        30.0000000000
atom         0.9000000000        1.9000000000        3.1649900000 N         0.0000000000         0.0000000000        -0.2448506799        0.0038511115     -264.6437269444
atom         0.9000000000        1.9000000000        2.0350100000 N         0.0000000000         0.0000000000        -0.1698905161        0.0048427151      264.7672738927
atom         6.0987700000        1.9000000000        2.7092700000 O         0.0000000000         0.0000000000       -69.0920920011       -0.0035052033     -120.4505256623
atom         5.1396300000        1.9000000000        2.5744700000 H         0.0000000000         0.0000000000       130.0901749516       -0.0028133869        4.6615218242
atom         6.4616000000        1.9000000000        1.8112300000 H         0.0000000000         0.0000000000       -60.5836977545       -0.0023752364      115.6667599503
energy      -869.7582353561
charge 0
end
