begin
comment generated by PY
lattice        30.0000000000         0.0000000000         0.0000000000
lattice         0.0000000000        30.0000000000         0.0000000000
lattice         0.0000000000         0.0000000000        30.0000000000
atom         1.7129300000        1.8714300000        2.6045000000 H         0.0000000000         0.0000000000       291.2898656676      -14.3109379459        0.2062996625
atom         2.4129300000        1.8714300000        2.6045000000 H         0.0000000000         0.0000000000       303.6103324118       -3.5455131358        3.2612457604
atom         0.9000000000        1.9000000000        3.1649900000 N         0.0000000000         0.0000000000      -295.3123631784        8.9123483535      232.4124585418
atom         0.9000000000        1.9000000000        2.0350100000 N         0.0000000000         0.0000000000      -299.5878579615        8.9441027281     -235.8800270253
energy      -273.9161283542
charge 0
end
begin
comment generated by PY
lattice        30.0000000000         0.0000000000         0.0000000000
lattice         0.0000000000        30.0000000000         0.0000000000
lattice         0.0000000000         0.0000000000        30.0000000000
atom         2.1856600000        1.8714300000        2.6045000000 H         0.0000000000         0.0000000000       109.9892669507       -2.9581148568        0.4626176537
atom         2.8856600000        1.8714300000        2.6045000000 H         0.0000000000         0.0000000000       101.6507803345       -1.1298054288        0.2579322295
atom         0.9000000000        1.9000000000        3.1649900000 N         0.0000000000         0.0000000000      -105.6931329771        2.0426572218      -23.2440407926
atom         0.9000000000        1.9000000000        2.0350100000 N         0.0000000000         0.0000000000      -105.9469143080        2.0452630637       22.5234909094
energy      -467.7749323842
charge 0
end
begin
comment generated by PY
lattice        30.0000000000         0.0000000000         0.0000000000
lattice         0.0000000000        30.0000000000         0.0000000000
lattice         0.0000000000         0.0000000000        30.0000000000
atom         2.6583800000        1.8714300000        2.6045000000 H         0.0000000000         0.0000000000        -3.8003783124       -0.5368034366        0.0815651583
atom         3.3583800000        1.8714300000        2.6045000000 H         0.0000000000         0.0000000000        55.7462689773       -0.2188676612        0.0306705289
atom         0.9000000000        1.9000000000        3.1649900000 N         0.0000000000         0.0000000000       -25.9973549225        0.3790462277      -40.4490313929
atom         0.9000000000        1.9000000000        2.0350100000 N         0.0000000000         0.0000000000       -25.9485357424        0.3766248701       40.3367957057
energy      -522.3671636782
charge 0
end
begin
comment generated by PY
lattice        30.0000000000         0.0000000000         0.0000000000
lattice         0.0000000000        30.0000000000         0.0000000000
lattice         0.0000000000         0.0000000000        30.0000000000
atom         3.1311100000        1.8714300000        2.6045000000 H         0.0000000000         0.0000000000       -36.2380600232       -0.1046257063        0.0194169814
atom         3.8311100000        1.8714300000        2.6045000000 H         0.0000000000         0.0000000000        47.9232317302       -0.0337375817        0.0064108323
atom         0.9000000000        1.9000000000        3.1649900000 N         0.0000000000         0.0000000000        -5.8478090676        0.0696197944      -41.9795830250
atom         0.9000000000        1.9000000000        2.0350100000 N         0.0000000000         0.0000000000        -5.8373626394        0.0687665542       41.9537552112
energy      -534.9549907264
charge 0
end
begin
comment generated by PY
lattice        30.0000000000         0.0000000000         0.0000000000
lattice         0.0000000000        30.0000000000         0.0000000000
lattice         0.0000000000         0.0000000000        30.0000000000
atom         3.6038400000        1.8714300000        2.6045000000 H         0.0000000000         0.0000000000       -45.9569510434       -0.0084171000        0.0053500471
atom         4.3038400000        1.8714300000        2.6045000000 H         0.0000000000         0.0000000000        47.2351741592       -0.0036205060        0.0031823556
atom         0.9000000000        1.9000000000        3.1649900000 N         0.0000000000         0.0000000000        -0.6384773928        0.0064338929      -42.1763125601
atom         0.9000000000        1.9000000000        2.0350100000 N         0.0000000000         0.0000000000        -0.6397687835        0.0056037132       42.1677570968
energy      -537.4149961319
charge 0
end
begin
comment generated by PY
lattice        30.0000000000         0.0000000000         0.0000000000
lattice         0.0000000000        30.0000000000         0.0000000000
lattice         0.0000000000         0.0000000000        30.0000000000
atom         4.0765700000        1.8714300000        2.6045000000 H         0.0000000000         0.0000000000       -47.4048997925       -0.0001383633        0.0038511115
atom         4.7765700000        1.8714300000        2.6045000000 H         0.0000000000         0.0000000000        47.3144102021        0.0000230605        0.0029056290
atom         0.9000000000        1.9000000000        3.1649900000 N         0.0000000000         0.0000000000         0.0463517015        0.0004150899      -42.1358643589
atom         0.9000000000        1.9000000000        2.0350100000 N         0.0000000000         0.0000000000         0.0441148283       -0.0002767266       42.1291076183
energy      -537.5998720841
charge 0
end
begin
comment generated by PY
lattice        30.0000000000         0.0000000000         0.0000000000
lattice         0.0000000000        30.0000000000         0.0000000000
lattice         0.0000000000         0.0000000000        30.0000000000
atom         4.5492900000        1.8714300000        2.6045000000 H         0.0000000000         0.0000000000       -47.5790991722        0.0005995742        0.0031592951
atom         5.2492900000        1.8714300000        2.6045000000 H         0.0000000000         0.0000000000        47.3907867371        0.0008532403        0.0027211447
atom         0.9000000000        1.9000000000        3.1649900000 N         0.0000000000         0.0000000000         0.0951708816       -0.0005303926      -42.1696480617
atom         0.9000000000        1.9000000000        2.0350100000 N         0.0000000000         0.0000000000         0.0931415534       -0.0009454825       42.1637676220
energy      -537.5175443134
charge 0
end
begin
comment generated by PY
lattice        30.0000000000         0.0000000000         0.0000000000
lattice         0.0000000000        30.0000000000         0.0000000000
lattice         0.0000000000         0.0000000000        30.0000000000
atom         5.0220200000        1.8714300000        2.6045000000 H         0.0000000000         0.0000000000       -47.5204331381        0.0006918164        0.0032745978
atom         5.7220200000        1.8714300000        2.6045000000 H         0.0000000000         0.0000000000        47.3980046887        0.0015911778        0.0028595080
atom         0.9000000000        1.9000000000        3.1649900000 N         0.0000000000         0.0000000000         0.0620789952       -0.0005995742      -42.1963982974
atom         0.9000000000        1.9000000000        2.0350100000 N         0.0000000000         0.0000000000         0.0603263936       -0.0016834200       42.1902872522
energy      -537.4430013226
charge 0
end
begin
comment generated by PY
lattice        30.0000000000         0.0000000000         0.0000000000
lattice         0.0000000000        30.0000000000         0.0000000000
lattice         0.0000000000         0.0000000000        30.0000000000
atom         5.4947500000        1.8714300000        2.6045000000 H         0.0000000000         0.0000000000       -47.4726286220        0.0007609981        0.0029978712
atom         6.1947500000        1.8714300000        2.6045000000 H         0.0000000000         0.0000000000        47.4065370914        0.0017756622        0.0025827814
atom         0.9000000000        1.9000000000        3.1649900000 N         0.0000000000         0.0000000000         0.0338298239       -0.0008763008      -42.2203582068
atom         0.9000000000        1.9000000000        2.0350100000 N         0.0000000000         0.0000000000         0.0322617067       -0.0016603595       42.2147775542
energy      -537.4029098681
charge 0
end
begin
comment generated by PY
lattice        30.0000000000         0.0000000000         0.0000000000
lattice         0.0000000000        30.0000000000         0.0000000000
lattice         0.0000000000         0.0000000000        30.0000000000
atom         5.9674700000        1.8714300000        2.6045000000 H         0.0000000000         0.0000000000       -47.4374612863        0.0019832071        0.0029517501
atom         6.6674700000        1.8714300000        2.6045000000 H         0.0000000000         0.0000000000        47.4084972380        0.0017064806        0.0029286896
atom         0.9000000000        1.9000000000        3.1649900000 N         0.0000000000         0.0000000000         0.0152430222       -0.0015450567      -42.2339178090
atom         0.9000000000        1.9000000000        2.0350100000 N         0.0000000000         0.0000000000         0.0137440866       -0.0021446310       42.2280373693
energy      -537.3844987877
charge 0
end
begin
comment generated by PY
lattice        30.0000000000         0.0000000000         0.0000000000
lattice         0.0000000000        30.0000000000         0.0000000000
lattice         0.0000000000         0.0000000000        30.0000000000
atom         6.4402000000        1.8714300000        2.6045000000 H         0.0000000000         0.0000000000       -47.4195893616        0.0003459082        0.0038280510
atom         7.1402000000        1.8714300000        2.6045000000 H         0.0000000000         0.0000000000        47.4072289079       -0.0002997871        0.0040586565
atom         0.9000000000        1.9000000000        3.1649900000 N         0.0000000000         0.0000000000         0.0065491956       -0.0009224219      -42.2500601926
atom         0.9000000000        1.9000000000        2.0350100000 N         0.0000000000         0.0000000000         0.0058112581        0.0008763008       42.2421734852
energy      -537.3768627485
charge 0
end
begin
comment generated by PY
lattice        30.0000000000         0.0000000000         0.0000000000
lattice         0.0000000000        30.0000000000         0.0000000000
lattice         0.0000000000         0.0000000000        30.0000000000
atom         6.9129300000        1.8714300000        2.6045000000 H         0.0000000000         0.0000000000       -47.4151847969        0.0001153027        0.0040586565
atom         7.6129300000        1.8714300000        2.6045000000 H         0.0000000000         0.0000000000        47.4061681227       -0.0000922422        0.0039433537
atom         0.9000000000        1.9000000000        3.1649900000 N         0.0000000000         0.0000000000         0.0045659885       -0.0004612110      -42.2553410581
atom         0.9000000000        1.9000000000        2.0350100000 N         0.0000000000         0.0000000000         0.0044737463        0.0004381504       42.2473159874
energy      -537.3737027616
charge 0
end
