begin
comment generated by PY
lattice        30.0000000000         0.0000000000         0.0000000000
lattice         0.0000000000        30.0000000000         0.0000000000
lattice         0.0000000000         0.0000000000        30.0000000000
atom         2.8000000000        1.9000000000        2.5350100000 C         0.0000000000         0.0000000000       281.5811904701        9.2161941341      -34.2043964151
atom         3.2329900000        1.4492200000        3.4275800000 H         0.0000000000         0.0000000000         5.6200169744       -9.5838484511       10.9506471318
atom         1.7129300000        1.8714300000        2.6045000000 H         0.0000000000         0.0000000000       376.0661822364      -15.4852502323       -2.3045558656
atom         3.1224100000        1.3446100000        1.6546900000 H         0.0000000000         0.0000000000        13.3679460166       -8.5587379103       -8.7133819453
atom         3.1316700000        2.9347400000        2.4532600000 H         0.0000000000         0.0000000000         3.5377417311        8.7008600677       -1.0042407448
atom         0.9000000000        1.9000000000        3.1649900000 N         0.0000000000         0.0000000000      -373.5464483973        8.4902711432      232.0287079624
atom         0.9000000000        1.9000000000        2.0350100000 N         0.0000000000         0.0000000000      -306.6266290313        7.2205343092     -196.7527801234
energy      -664.3340435684
charge 0
end
begin
comment generated by PY
lattice        30.0000000000         0.0000000000         0.0000000000
lattice         0.0000000000        30.0000000000         0.0000000000
lattice         0.0000000000         0.0000000000        30.0000000000
atom         3.2545500000        1.9000000000        2.5350100000 C         0.0000000000         0.0000000000        41.9953564398        1.2371522798        0.9726939151
atom         3.6875400000        1.4492200000        3.4275800000 H         0.0000000000         0.0000000000         8.4415211448       -4.3310245827        6.9712497851
atom         2.1674700000        1.8714300000        2.6045000000 H         0.0000000000         0.0000000000       161.3390655100       -2.7295156444       -1.9082142269
atom         3.5769500000        1.3446100000        1.6546900000 H         0.0000000000         0.0000000000         6.2159015350       -5.3395084684       -7.2673241611
atom         3.5862100000        2.9347400000        2.4532600000 H         0.0000000000         0.0000000000         5.8446958937        7.8685587688       -0.6979274856
atom         0.9000000000        1.9000000000        3.1649900000 N         0.0000000000         0.0000000000      -112.1626082981        1.6454162218      -16.8775538791
atom         0.9000000000        1.9000000000        2.0350100000 N         0.0000000000         0.0000000000      -111.6739322252        1.6489214251       18.8070760523
energy      -863.9181823261
charge 0
end
begin
comment generated by PY
lattice        30.0000000000         0.0000000000         0.0000000000
lattice         0.0000000000        30.0000000000         0.0000000000
lattice         0.0000000000         0.0000000000        30.0000000000
atom         3.7090900000        1.9000000000        2.5350100000 C         0.0000000000         0.0000000000         3.2721764602       -0.2439575374        1.0563114622
atom         4.1420800000        1.4492200000        3.4275800000 H         0.0000000000         0.0000000000         4.6035310786       -2.9995546616        5.8122958237
atom         2.6220200000        1.8714300000        2.6045000000 H         0.0000000000         0.0000000000        43.5330568418       -0.4673681266       -0.4501418972
atom         4.0315000000        1.3446100000        1.6546900000 H         0.0000000000         0.0000000000         3.3502825363       -3.7826447510       -5.9965034812
atom         4.0407600000        2.9347400000        2.4532600000 H         0.0000000000         0.0000000000         3.4610192878        6.8373833039       -0.5888510935
atom         0.9000000000        1.9000000000        3.1649900000 N         0.0000000000         0.0000000000       -28.8578314190        0.3302039870      -39.4128748496
atom         0.9000000000        1.9000000000        2.0350100000 N         0.0000000000         0.0000000000       -29.3622347857        0.3259608462       39.5797640356
energy      -920.5591641305
charge 0
end
begin
comment generated by PY
lattice        30.0000000000         0.0000000000         0.0000000000
lattice         0.0000000000        30.0000000000         0.0000000000
lattice         0.0000000000         0.0000000000        30.0000000000
atom         4.1636400000        1.9000000000        2.5350100000 C         0.0000000000         0.0000000000        -1.3454446132       -0.1617236232        0.3785158351
atom         4.5966300000        1.4492200000        3.4275800000 H         0.0000000000         0.0000000000         3.1293394258       -2.7737457754        5.5331248295
atom         3.0765700000        1.8714300000        2.6045000000 H         0.0000000000         0.0000000000         7.0338591730       -0.2046393031        0.1713629323
atom         4.4860500000        1.3446100000        1.6546900000 H         0.0000000000         0.0000000000         2.2947551327       -3.4531556410       -5.5515040862
atom         4.4953000000        2.9347400000        2.4532600000 H         0.0000000000         0.0000000000         2.4021711653        6.4582909552       -0.5252039810
atom         0.9000000000        1.9000000000        3.1649900000 N         0.0000000000         0.0000000000        -6.6944079063        0.0699657027      -41.8768252231
atom         0.9000000000        1.9000000000        2.0350100000 N         0.0000000000         0.0000000000        -6.8202723773        0.0650076848       41.8705066329
energy      -934.3806931393
charge 0
end
begin
comment generated by PY
lattice        30.0000000000         0.0000000000         0.0000000000
lattice         0.0000000000        30.0000000000         0.0000000000
lattice         0.0000000000         0.0000000000        30.0000000000
atom         4.6181800000        1.9000000000        2.5350100000 C         0.0000000000         0.0000000000        -0.5961843478       -0.0607876046        0.0868921449
atom         5.0511800000        1.4492200000        3.4275800000 H         0.0000000000         0.0000000000         2.6933797656       -2.7519074365        5.4913852376
atom         3.5311100000        1.8714300000        2.6045000000 H         0.0000000000         0.0000000000        -4.4548366650       -0.1719394460        0.3806143449
atom         4.9405900000        1.3446100000        1.6546900000 H         0.0000000000         0.0000000000         1.9852595178       -3.3982715367       -5.4395681862
atom         4.9498500000        2.9347400000        2.4532600000 H         0.0000000000         0.0000000000         2.0659483753        6.3679627886       -0.5038037924
atom         0.9000000000        1.9000000000        3.1649900000 N         0.0000000000         0.0000000000        -0.8298568808        0.0121529088      -42.2002494089
atom         0.9000000000        1.9000000000        2.0350100000 N         0.0000000000         0.0000000000        -0.8636867047        0.0027903263       42.1847296601
energy      -937.2711063780
charge 0
end
begin
comment generated by PY
lattice        30.0000000000         0.0000000000         0.0000000000
lattice         0.0000000000        30.0000000000         0.0000000000
lattice         0.0000000000         0.0000000000        30.0000000000
atom         5.0727300000        1.9000000000        2.5350100000 C         0.0000000000         0.0000000000        -0.0769299882       -0.0259661771        0.0025827814
atom         5.5057200000        1.4492200000        3.4275800000 H         0.0000000000         0.0000000000         2.5904605398       -2.7480102039        5.4675175704
atom         3.9856600000        1.8714300000        2.6045000000 H         0.0000000000         0.0000000000        -6.5350595195       -0.1782810967        0.4357290547
atom         5.3951400000        1.3446100000        1.6546900000 H         0.0000000000         0.0000000000         1.9172770223       -3.3839509364       -5.3966986274
atom         5.4044000000        2.9347400000        2.4532600000 H         0.0000000000         0.0000000000         1.9883496312        6.3351476288       -0.4972084757
atom         0.9000000000        1.9000000000        3.1649900000 N         0.0000000000         0.0000000000         0.0653997142       -0.0003459082      -42.1588326647
atom         0.9000000000        1.9000000000        2.0350100000 N         0.0000000000         0.0000000000         0.0505256607        0.0014066934       42.1469103614
energy      -937.5014079201
charge 0
end
begin
comment generated by PY
lattice        30.0000000000         0.0000000000         0.0000000000
lattice         0.0000000000        30.0000000000         0.0000000000
lattice         0.0000000000         0.0000000000        30.0000000000
atom         5.5272700000        1.9000000000        2.5350100000 C         0.0000000000         0.0000000000         0.0818880060       -0.0110921236       -0.0142283581
atom         5.9602700000        1.4492200000        3.4275800000 H         0.0000000000         0.0000000000         2.5841419497       -2.7521149814        5.4630207635
atom         4.4402000000        1.8714300000        2.6045000000 H         0.0000000000         0.0000000000        -6.8501588475       -0.1802873644        0.4450224555
atom         5.8496800000        1.3446100000        1.6546900000 H         0.0000000000         0.0000000000         1.9192141083       -3.3863261728       -5.3874052266
atom         5.8589400000        2.9347400000        2.4532600000 H         0.0000000000         0.0000000000         1.9847291252        6.3310428512       -0.4957095401
atom         0.9000000000        1.9000000000        3.1649900000 N         0.0000000000         0.0000000000         0.1445665755        0.0001844844      -42.1741679291
atom         0.9000000000        1.9000000000        2.0350100000 N         0.0000000000         0.0000000000         0.1356652040       -0.0013836329       42.1634447743
energy      -937.3956522469
charge 0
end
begin
comment generated by PY
lattice        30.0000000000         0.0000000000         0.0000000000
lattice         0.0000000000        30.0000000000         0.0000000000
lattice         0.0000000000         0.0000000000        30.0000000000
atom         5.9818200000        1.9000000000        2.5350100000 C         0.0000000000         0.0000000000         0.0925419792       -0.0068028617       -0.0130061491
atom         6.4148100000        1.4492200000        3.4275800000 H         0.0000000000         0.0000000000         2.5966407667       -2.7531988272        5.4573017476
atom         4.8947500000        1.8714300000        2.6045000000 H         0.0000000000         0.0000000000        -6.8103794022       -0.1787653682        0.4414019495
atom         6.3042300000        1.3446100000        1.6546900000 H         0.0000000000         0.0000000000         1.9343418278       -3.3874100186       -5.3818706951
atom         6.3134900000        2.9347400000        2.4532600000 H         0.0000000000         0.0000000000         1.9959826726        6.3267305288       -0.4953175108
atom         0.9000000000        1.9000000000        3.1649900000 N         0.0000000000         0.0000000000         0.0986530244        0.0005073321      -42.1970901139
atom         0.9000000000        1.9000000000        2.0350100000 N         0.0000000000         0.0000000000         0.0922652526       -0.0010838458       42.1885807716
energy      -937.2899187119
charge 0
end
begin
comment generated by PY
lattice        30.0000000000         0.0000000000         0.0000000000
lattice         0.0000000000        30.0000000000         0.0000000000
lattice         0.0000000000         0.0000000000        30.0000000000
atom         6.4363600000        1.9000000000        2.5350100000 C         0.0000000000         0.0000000000         0.0668525287       -0.0048427151       -0.0080481313
atom         6.8693600000        1.4492200000        3.4275800000 H         0.0000000000         0.0000000000         2.6092548865       -2.7528067978        5.4519055794
atom         5.3492900000        1.8714300000        2.6045000000 H         0.0000000000         0.0000000000        -6.7404136995       -0.1772203115        0.4366284161
atom         6.7587700000        1.3446100000        1.6546900000 H         0.0000000000         0.0000000000         1.9479475511       -3.3879404112       -5.3790111871
atom         6.7680300000        2.9347400000        2.4532600000 H         0.0000000000         0.0000000000         2.0072362201        6.3223720852       -0.4954558740
atom         0.9000000000        1.9000000000        3.1649900000 N         0.0000000000         0.0000000000         0.0570056747       -0.0000461211      -42.2289828518
atom         0.9000000000        1.9000000000        2.0350100000 N         0.0000000000         0.0000000000         0.0520937780        0.0004842715       42.2229640487
energy      -937.2287261641
charge 0
end
begin
comment generated by PY
lattice        30.0000000000         0.0000000000         0.0000000000
lattice         0.0000000000        30.0000000000         0.0000000000
lattice         0.0000000000         0.0000000000        30.0000000000
atom         6.8909100000        1.9000000000        2.5350100000 C         0.0000000000         0.0000000000         0.0387186601       -0.0036896877       -0.0044506858
atom         7.3239000000        1.4492200000        3.4275800000 H         0.0000000000         0.0000000000         2.6206929183       -2.7533602510        5.4514674290
atom         5.8038400000        1.8714300000        2.6045000000 H         0.0000000000         0.0000000000        -6.6922632753       -0.1758366786        0.4337458476
atom         7.2133200000        1.3446100000        1.6546900000 H         0.0000000000         0.0000000000         1.9585092821       -3.3891395597       -5.3786191578
atom         7.2225800000        2.9347400000        2.4532600000 H         0.0000000000         0.0000000000         2.0169908319        6.3239863235       -0.4954789346
atom         0.9000000000        1.9000000000        3.1649900000 N         0.0000000000         0.0000000000         0.0301862573        0.0008071192      -42.2401902781
atom         0.9000000000        1.9000000000        2.0350100000 N         0.0000000000         0.0000000000         0.0271422650       -0.0027672658       42.2335257797
energy      -937.1959799553
charge 0
end
begin
comment generated by PY
lattice        30.0000000000         0.0000000000         0.0000000000
lattice         0.0000000000        30.0000000000         0.0000000000
lattice         0.0000000000         0.0000000000        30.0000000000
atom         7.3454500000        1.9000000000        2.5350100000 C         0.0000000000         0.0000000000         0.0229683058       -0.0046351702       -0.0023521759
atom         7.7784500000        1.4492200000        3.4275800000 H         0.0000000000         0.0000000000         2.6281414753       -2.7546747022        5.4507294914
atom         6.2583800000        1.8714300000        2.6045000000 H         0.0000000000         0.0000000000        -6.6683033659       -0.1760442235        0.4314859139
atom         7.6678600000        1.3446100000        1.6546900000 H         0.0000000000         0.0000000000         1.9641129953       -3.3911688879       -5.3787344605
atom         7.6771200000        2.9347400000        2.4532600000 H         0.0000000000         0.0000000000         2.0220410919        6.3237557181       -0.4958248428
atom         0.9000000000        1.9000000000        3.1649900000 N         0.0000000000         0.0000000000         0.0170186844        0.0018909649      -42.2540957885
atom         0.9000000000        1.9000000000        2.0350100000 N         0.0000000000         0.0000000000         0.0140208132        0.0008763008       42.2487918625
energy      -937.1799720147
charge 0
end
begin
comment generated by PY
lattice        30.0000000000         0.0000000000         0.0000000000
lattice         0.0000000000        30.0000000000         0.0000000000
lattice         0.0000000000         0.0000000000        30.0000000000
atom         7.8000000000        1.9000000000        2.5350100000 C         0.0000000000         0.0000000000         0.0143667214       -0.0039894748        0.0001614238
atom         8.2329900000        1.4492200000        3.4275800000 H         0.0000000000         0.0000000000         2.6357975772       -2.7572344231        5.4565407495
atom         6.7129300000        1.8714300000        2.6045000000 H         0.0000000000         0.0000000000        -6.6651440708       -0.1754215887        0.4313014295
atom         8.1224100000        1.3446100000        1.6546900000 H         0.0000000000         0.0000000000         1.9684944994       -3.3949046967       -5.3840153260
atom         8.1316700000        2.9347400000        2.4532600000 H         0.0000000000         0.0000000000         2.0267454437        6.3320805759       -0.4961476905
atom         0.9000000000        1.9000000000        3.1649900000 N         0.0000000000         0.0000000000         0.0109306998        0.0009224219      -42.2528043979
atom         0.9000000000        1.9000000000        2.0350100000 N         0.0000000000         0.0000000000         0.0088321899       -0.0014528145       42.2450099326
energy      -937.1720610937
charge 0
end
