begin
comment generated by PY
lattice        30.0000000000         0.0000000000         0.0000000000
lattice         0.0000000000        30.0000000000         0.0000000000
lattice         0.0000000000         0.0000000000        30.0000000000
atom         0.0000000000        0.0000000000        0.6674800000 C         0.0000000000         0.0000000000      -228.6891947020        3.8455078048       84.8783825543
atom         0.0000000000        0.0000000000       29.3325200000 C         0.0000000000         0.0000000000      -247.4082717031        5.7412693358      -92.6106304239
atom         2.0000000000        0.0000000000        0.0325200000 C         0.0000000000         0.0000000000       224.0502887428        0.1870671655      -21.0109956864
atom         0.0000000000        0.9228300000        1.2377000000 H         0.0000000000         0.0000000000         5.8893872357        4.0076003968       -0.1721239304
atom         0.0000000000       29.0771700000        1.2377000000 H         0.0000000000         0.0000000000         5.2353209124       -3.9042891417        0.1446818782
atom         0.0000000000        0.9228300000       28.7623000000 H         0.0000000000         0.0000000000         3.6546587095        3.8092566234        0.2950135907
atom         0.0000000000       29.0771700000       28.7623000000 H         0.0000000000         0.0000000000         2.5292347849       -3.9981686327       -0.3526188397
atom         2.2509500000       29.9629200000        1.0922500000 H         0.0000000000         0.0000000000         0.9748154856       -0.9049881462       15.1564068176
atom         0.9175600000       29.9595400000       29.9139500000 H         0.0000000000         0.0000000000       210.8966443989       -8.8761202326       17.6875095069
atom         2.4533200000       29.1507600000       29.5219800000 H         0.0000000000         0.0000000000        13.8883995247      -10.8635705025       -2.4791472746
atom         2.3781700000        0.9267900000       29.6019100000 H         0.0000000000         0.0000000000         8.9787166107       10.9564814504       -1.5365012535
energy     -1109.6188571152
charge 0
end
begin
comment generated by PY
lattice        30.0000000000         0.0000000000         0.0000000000
lattice         0.0000000000        30.0000000000         0.0000000000
lattice         0.0000000000         0.0000000000        30.0000000000
atom         0.0000000000        0.0000000000        0.6674800000 C         0.0000000000         0.0000000000       -89.5686212934        1.1153925862        6.3358625058
atom         0.0000000000        0.0000000000       29.3325200000 C         0.0000000000         0.0000000000       -87.9957074346        1.2951034369       -3.0762771048
atom         2.4272700000        0.0000000000        0.0325200000 C         0.0000000000         0.0000000000        58.7119707543       -1.7662765539       -9.7062307794
atom         0.0000000000        0.9228300000        1.2377000000 H         0.0000000000         0.0000000000         3.7935985113        4.7973549846        1.7567525476
atom         0.0000000000       29.0771700000        1.2377000000 H         0.0000000000         0.0000000000         3.5513243939       -4.8440756549        1.9404989941
atom         0.0000000000        0.9228300000       28.7623000000 H         0.0000000000         0.0000000000         2.5760246368        5.0457632078       -2.0828748175
atom         0.0000000000       29.0771700000       28.7623000000 H         0.0000000000         0.0000000000         2.1362830467       -5.1762859095       -2.3571569756
atom         2.6782200000       29.9629200000        1.0922500000 H         0.0000000000         0.0000000000         2.4108649919       -0.4266662593       10.8718261786
atom         1.3448300000       29.9595400000       29.9139500000 H         0.0000000000         0.0000000000        87.6168918124       -0.9578429222        2.2220913459
atom         2.8805900000       29.1507600000       29.5219800000 H         0.0000000000         0.0000000000         9.6946082632       -7.1965513392       -3.1727624377
atom         2.8054400000        0.9267900000       29.6019100000 H         0.0000000000         0.0000000000         7.0727623175        8.1140844235       -2.7317294570
energy     -1235.5029277860
charge 0
end
begin
comment generated by PY
lattice        30.0000000000         0.0000000000         0.0000000000
lattice         0.0000000000        30.0000000000         0.0000000000
lattice         0.0000000000         0.0000000000        30.0000000000
atom         0.0000000000        0.0000000000        0.6674800000 C         0.0000000000         0.0000000000       -28.6376262460        0.2668797221       -6.9695433046
atom         0.0000000000        0.0000000000       29.3325200000 C         0.0000000000         0.0000000000       -28.1705117855        0.3108331267        7.8181484109
atom         2.8545500000        0.0000000000        0.0325200000 C         0.0000000000         0.0000000000        12.1770762567       -1.0502234776       -3.8596669813
atom         0.0000000000        0.9228300000        1.2377000000 H         0.0000000000         0.0000000000         1.6388209050        5.3445356678        2.5846262212
atom         0.0000000000       29.0771700000        1.2377000000 H         0.0000000000         0.0000000000         1.5938067153       -5.3539213109        2.6076406481
atom         0.0000000000        0.9228300000       28.7623000000 H         0.0000000000         0.0000000000         1.3455368554        5.3577032407       -2.6178334103
atom         0.0000000000       29.0771700000       28.7623000000 H         0.0000000000         0.0000000000         1.2363682211       -5.4017027663       -2.6686357976
atom         3.1054900000       29.9629200000        1.0922500000 H         0.0000000000         0.0000000000         2.4657260356       -0.2772800293        8.2702965758
atom         1.7721100000       29.9595400000       29.9139500000 H         0.0000000000         0.0000000000        25.3970888577        0.0184714990        0.8161589152
atom         3.3078700000       29.1507600000       29.5219800000 H         0.0000000000         0.0000000000         6.1426151134       -5.9124477837       -3.2055775975
atom         3.2327200000        0.9267900000       29.6019100000 H         0.0000000000         0.0000000000         4.8110529501        6.6971290509       -2.7755906193
energy     -1277.7046931954
charge 0
end
begin
comment generated by PY
lattice        30.0000000000         0.0000000000         0.0000000000
lattice         0.0000000000        30.0000000000         0.0000000000
lattice         0.0000000000         0.0000000000        30.0000000000
atom         0.0000000000        0.0000000000        0.6674800000 C         0.0000000000         0.0000000000        -8.1213484962        0.0616408448       -7.8402634764
atom         0.0000000000        0.0000000000       29.3325200000 C         0.0000000000         0.0000000000        -7.9744066842        0.0768838671        8.0332802633
atom         3.2818200000        0.0000000000        0.0325200000 C         0.0000000000         0.0000000000         0.9697421650       -0.4871771373       -1.5482851935
atom         0.0000000000        0.9228300000        1.2377000000 H         0.0000000000         0.0000000000         0.5920334491        5.6162350445        2.8462020173
atom         0.0000000000       29.0771700000        1.2377000000 H         0.0000000000         0.0000000000         0.5741154033       -5.6262894434        2.8550572677
atom         0.0000000000        0.9228300000       28.7623000000 H         0.0000000000         0.0000000000         0.4977849894        5.6280881662       -2.8597616195
atom         0.0000000000       29.0771700000       28.7623000000 H         0.0000000000         0.0000000000         0.4639782260       -5.6484967512       -2.8739899776
atom         3.5327700000       29.9629200000        1.0922500000 H         0.0000000000         0.0000000000         2.0961576932       -0.2387458536        7.1851133074
atom         2.1993800000       29.9595400000       29.9139500000 H         0.0000000000         0.0000000000         3.1117442277       -0.0086938266        0.0758461424
atom         3.7351400000       29.1507600000       29.5219800000 H         0.0000000000         0.0000000000         4.3037670149       -5.4610144958       -3.1655906073
atom         3.6599900000        0.9267900000       29.6019100000 H         0.0000000000         0.0000000000         3.4864550723        6.0875695853       -2.7076542448
energy     -1289.9130584648
charge 0
end
begin
comment generated by PY
lattice        30.0000000000         0.0000000000         0.0000000000
lattice         0.0000000000        30.0000000000         0.0000000000
lattice         0.0000000000         0.0000000000        30.0000000000
atom         0.0000000000        0.0000000000        0.6674800000 C         0.0000000000         0.0000000000        -1.4118589915        0.0030901134       -7.5692097951
atom         0.0000000000        0.0000000000       29.3325200000 C         0.0000000000         0.0000000000        -1.3833100331        0.0089936137        7.5524908978
atom         3.7090900000        0.0000000000        0.0325200000 C         0.0000000000         0.0000000000        -0.6276850563       -0.2160773349       -0.6413830219
atom         0.0000000000        0.9228300000        1.2377000000 H         0.0000000000         0.0000000000         0.2031634280        5.7172863659        2.9030693287
atom         0.0000000000       29.0771700000        1.2377000000 H         0.0000000000         0.0000000000         0.1916100934       -5.7260263136        2.9094109794
atom         0.0000000000        0.9228300000       28.7623000000 H         0.0000000000         0.0000000000         0.1598095977        5.7316300268       -2.9145073605
atom         0.0000000000       29.0771700000       28.7623000000 H         0.0000000000         0.0000000000         0.1425141867       -5.7444747520       -2.9225093707
atom         3.9600400000       29.9629200000        1.0922500000 H         0.0000000000         0.0000000000         1.8138043433       -0.2290143023        6.7635203687
atom         2.6266500000       29.9595400000       29.9139500000 H         0.0000000000         0.0000000000        -5.4208660817       -0.0878145668       -0.2756196698
atom         4.1624100000       29.1507600000       29.5219800000 H         0.0000000000         0.0000000000         3.4734950443       -5.3004900211       -3.1408696998
atom         4.0872600000        0.9267900000       29.6019100000 H         0.0000000000         0.0000000000         2.8593004086        5.8428971709       -2.6644157173
energy     -1292.8850772178
charge 0
end
begin
comment generated by PY
lattice        30.0000000000         0.0000000000         0.0000000000
lattice         0.0000000000        30.0000000000         0.0000000000
lattice         0.0000000000         0.0000000000        30.0000000000
atom         0.0000000000        0.0000000000        0.6674800000 C         0.0000000000         0.0000000000         0.0052578049       -0.0027672658       -7.2747496575
atom         0.0000000000        0.0000000000       29.3325200000 C         0.0000000000         0.0000000000         0.0488422407       -0.0007609981        7.2575464887
atom         4.1363600000        0.0000000000        0.0325200000 C         0.0000000000         0.0000000000        -0.6241337319       -0.1002672628       -0.2810619592
atom         0.0000000000        0.9228300000        1.2377000000 H         0.0000000000         0.0000000000         0.0679594350        5.7535375474        2.9171362630
atom         0.0000000000       29.0771700000        1.2377000000 H         0.0000000000         0.0000000000         0.0609720889       -5.7598100164        2.9211257378
atom         0.0000000000        0.9228300000       28.7623000000 H         0.0000000000         0.0000000000         0.0457521273        5.7635458252       -2.9232011871
atom         0.0000000000       29.0771700000       28.7623000000 H         0.0000000000         0.0000000000         0.0365279081       -5.7714094721       -2.9277902362
atom         4.3873100000       29.9629200000        1.0922500000 H         0.0000000000         0.0000000000         1.6807911024       -0.2268466108        6.6072851559
atom         3.0539300000       29.9595400000       29.9139500000 H         0.0000000000         0.0000000000        -7.0129432560       -0.1613085333       -0.5051643648
atom         4.5896800000       29.1507600000       29.5219800000 H         0.0000000000         0.0000000000         3.1113521983       -5.2483040010       -3.1381946762
atom         4.5145300000        0.9267900000       29.6019100000 H         0.0000000000         0.0000000000         2.5796220823        5.7543907876       -2.6529546250
energy     -1293.1262681813
charge 0
end
begin
comment generated by PY
lattice        30.0000000000         0.0000000000         0.0000000000
lattice         0.0000000000        30.0000000000         0.0000000000
lattice         0.0000000000         0.0000000000        30.0000000000
atom         0.0000000000        0.0000000000        0.6674800000 C         0.0000000000         0.0000000000         0.2114191042       -0.0017987227       -7.2010942672
atom         0.0000000000        0.0000000000       29.3325200000 C         0.0000000000         0.0000000000         0.2378695527       -0.0008763008        7.1904172335
atom         4.5636400000        0.0000000000        0.0325200000 C         0.0000000000         0.0000000000        -0.3922368611       -0.0507793267       -0.1383632881
atom         0.0000000000        0.9228300000        1.2377000000 H         0.0000000000         0.0000000000         0.0219536417        5.7659902433        2.9219328570
atom         0.0000000000       29.0771700000        1.2377000000 H         0.0000000000         0.0000000000         0.0175260165       -5.7699335970        2.9244925778
atom         0.0000000000        0.9228300000       28.7623000000 H         0.0000000000         0.0000000000         0.0086477055        5.7731159526       -2.9258762107
atom         0.0000000000       29.0771700000       28.7623000000 H         0.0000000000         0.0000000000         0.0030901134       -5.7778433650       -2.9287587792
atom         4.8145800000       29.9629200000        1.0922500000 H         0.0000000000         0.0000000000         1.6074354992       -0.2267774292        6.5471201861
atom         3.4812000000       29.9595400000       29.9139500000 H         0.0000000000         0.0000000000        -7.1190217768       -0.2012263420       -0.6109430985
atom         5.0169600000       29.1507600000       29.5219800000 H         0.0000000000         0.0000000000         2.9516809639       -5.2271344179       -3.1335364455
atom         4.9418100000        0.9267900000       29.6019100000 H         0.0000000000         0.0000000000         2.4516360408        5.7172402448       -2.6453907652
energy     -1292.9371850627
charge 0
end
begin
comment generated by PY
lattice        30.0000000000         0.0000000000         0.0000000000
lattice         0.0000000000        30.0000000000         0.0000000000
lattice         0.0000000000         0.0000000000        30.0000000000
atom         0.0000000000        0.0000000000        0.6674800000 C         0.0000000000         0.0000000000         0.1844382630       -0.0009454825       -7.2272910497
atom         0.0000000000        0.0000000000       29.3325200000 C         0.0000000000         0.0000000000         0.1993123165       -0.0006226348        7.2227250612
atom         4.9909100000        0.0000000000        0.0325200000 C         0.0000000000         0.0000000000        -0.2633514583       -0.0288948667       -0.0737015114
atom         0.0000000000        0.9228300000        1.2377000000 H         0.0000000000         0.0000000000         0.0044737463        5.7721935307        2.9257839685
atom         0.0000000000       29.0771700000        1.2377000000 H         0.0000000000         0.0000000000         0.0014758751       -5.7750069176        2.9274443279
atom         0.0000000000        0.9228300000       28.7623000000 H         0.0000000000         0.0000000000        -0.0040355959        5.7773590935       -2.9272367830
atom         0.0000000000       29.0771700000       28.7623000000 H         0.0000000000         0.0000000000        -0.0074946781       -5.7805414491       -2.9290585663
atom         5.2418600000       29.9629200000        1.0922500000 H         0.0000000000         0.0000000000         1.5764651832       -0.2268004897        6.5189171359
atom         3.9084700000       29.9595400000       29.9139500000 H         0.0000000000         0.0000000000        -6.9699122734       -0.2199515069       -0.6585861907
atom         5.4442300000       29.1507600000       29.5219800000 H         0.0000000000         0.0000000000         2.8804699916       -5.2173798061       -3.1343666253
atom         5.3690800000        0.9267900000       29.6019100000 H         0.0000000000         0.0000000000         2.3981586300        5.7005905291       -2.6446067066
energy     -1292.7423536413
charge 0
end
begin
comment generated by PY
lattice        30.0000000000         0.0000000000         0.0000000000
lattice         0.0000000000        30.0000000000         0.0000000000
lattice         0.0000000000         0.0000000000        30.0000000000
atom         0.0000000000        0.0000000000        0.6674800000 C         0.0000000000         0.0000000000         0.1325981511       -0.0003459082       -7.2719132101
atom         0.0000000000        0.0000000000       29.3325200000 C         0.0000000000         0.0000000000         0.1406232218       -0.0002075449        7.2707601827
atom         5.4181800000        0.0000000000        0.0325200000 C         0.0000000000         0.0000000000        -0.1625538029       -0.0183100751       -0.0445990999
atom         0.0000000000        0.9228300000        1.2377000000 H         0.0000000000         0.0000000000         0.0005073321        5.7708560189        2.9260376345
atom         0.0000000000       29.0771700000        1.2377000000 H         0.0000000000         0.0000000000        -0.0013836329       -5.7726316811        2.9270984197
atom         0.0000000000        0.9228300000       28.7623000000 H         0.0000000000         0.0000000000        -0.0048888362        5.7751452809       -2.9270753592
atom         0.0000000000       29.0771700000       28.7623000000 H         0.0000000000         0.0000000000        -0.0070104066       -5.7770593063       -2.9282053260
atom         5.6691300000       29.9629200000        1.0922500000 H         0.0000000000         0.0000000000         1.5657650889       -0.2276076089        6.5207158586
atom         4.3357400000       29.9595400000       29.9139500000 H         0.0000000000         0.0000000000        -6.8647561744       -0.2310205700       -0.6863049694
atom         5.8715000000       29.1507600000       29.5219800000 H         0.0000000000         0.0000000000         2.8384306126       -5.2221994606       -3.1384944633
atom         5.7963500000        0.9267900000       29.6019100000 H         0.0000000000         0.0000000000         2.3626684466        5.7034269765       -2.6479966071
energy     -1292.6068071992
charge 0
end
begin
comment generated by PY
lattice        30.0000000000         0.0000000000         0.0000000000
lattice         0.0000000000        30.0000000000         0.0000000000
lattice         0.0000000000         0.0000000000        30.0000000000
atom         0.0000000000        0.0000000000        0.6674800000 C         0.0000000000         0.0000000000         0.0754541131       -0.0002997871       -7.2115868165
atom         0.0000000000        0.0000000000       29.3325200000 C         0.0000000000         0.0000000000         0.0806657969       -0.0002767266        7.2069285858
atom         5.8454500000        0.0000000000        0.0325200000 C         0.0000000000         0.0000000000        -0.1146339842       -0.0127063620       -0.0331380075
atom         0.0000000000        0.9228300000        1.2377000000 H         0.0000000000         0.0000000000        -0.0040817170        5.8127800952        2.9615047574
atom         0.0000000000       29.0771700000        1.2377000000 H         0.0000000000         0.0000000000        -0.0054192288       -5.8139331226        2.9621735132
atom         0.0000000000        0.9228300000       28.7623000000 H         0.0000000000         0.0000000000        -0.0078867074        5.8116501284       -2.9589911576
atom         0.0000000000       29.0771700000       28.7623000000 H         0.0000000000         0.0000000000        -0.0093164614       -5.8128492769       -2.9596829741
atom         6.0964000000       29.9629200000        1.0922500000 H         0.0000000000         0.0000000000         1.6068359249       -0.2357941034        6.7495456766
atom         4.7630200000       29.9595400000       29.9139500000 H         0.0000000000         0.0000000000        -6.9895137392       -0.2450875043       -0.7251850533
atom         6.2987700000       29.1507600000       29.5219800000 H         0.0000000000         0.0000000000         2.9276979940       -5.4067991475       -3.2500613946
atom         6.2236300000        0.9267900000       29.6019100000 H         0.0000000000         0.0000000000         2.4402210695        5.9033388673       -2.7415071293
energy     -1292.5171302625
charge 0
end
begin
comment generated by PY
lattice        30.0000000000         0.0000000000         0.0000000000
lattice         0.0000000000        30.0000000000         0.0000000000
lattice         0.0000000000         0.0000000000        30.0000000000
atom         0.0000000000        0.0000000000        0.6674800000 C         0.0000000000         0.0000000000         0.0496954810        0.0000230605       -7.3417636101
atom         0.0000000000        0.0000000000       29.3325200000 C         0.0000000000         0.0000000000         0.0530161999       -0.0000000000        7.3431933640
atom         6.2727300000        0.0000000000        0.0325200000 C         0.0000000000         0.0000000000        -0.0871227504       -0.0098929751       -0.0211465225
atom         0.0000000000        0.9228300000        1.2377000000 H         0.0000000000         0.0000000000        -0.0016372989        5.7660363644        2.9240544274
atom         0.0000000000       29.0771700000        1.2377000000 H         0.0000000000         0.0000000000        -0.0024905392       -5.7670279680        2.9245617594
atom         0.0000000000        0.9228300000       28.7623000000 H         0.0000000000         0.0000000000        -0.0041047775        5.7685269036       -2.9233395504
atom         0.0000000000       29.0771700000       28.7623000000 H         0.0000000000         0.0000000000        -0.0050502600       -5.7695415677       -2.9238699430
atom         6.5236700000       29.9629200000        1.0922500000 H         0.0000000000         0.0000000000         1.5496688264       -0.2273078218        6.4974938868
atom         5.1902900000       29.9595400000       29.9139500000 H         0.0000000000         0.0000000000        -6.6861522301       -0.2388380958       -0.7050070738
atom         6.7260500000       29.1507600000       29.5219800000 H         0.0000000000         0.0000000000         2.8004268295       -5.2056881082       -3.1318760861
atom         6.6509000000        0.9267900000       29.6019100000 H         0.0000000000         0.0000000000         2.3337505194        5.6837332685       -2.6423006518
energy     -1292.4724675155
charge 0
end
begin
comment generated by PY
lattice        30.0000000000         0.0000000000         0.0000000000
lattice         0.0000000000        30.0000000000         0.0000000000
lattice         0.0000000000         0.0000000000        30.0000000000
atom         0.0000000000        0.0000000000        0.6674800000 C         0.0000000000         0.0000000000         0.0301862573        0.0001153027       -7.3361598969
atom         0.0000000000        0.0000000000       29.3325200000 C         0.0000000000         0.0000000000         0.0323308883        0.0000922422        7.3398957057
atom         6.7000000000        0.0000000000        0.0325200000 C         0.0000000000         0.0000000000        -0.0662990755       -0.0076791625       -0.0196014658
atom         0.0000000000        0.9228300000        1.2377000000 H         0.0000000000         0.0000000000        -0.0019140255        5.7718476225        2.9293814140
atom         0.0000000000       29.0771700000        1.2377000000 H         0.0000000000         0.0000000000        -0.0024905392       -5.7724241362        2.9297273222
atom         0.0000000000        0.9228300000       28.7623000000 H         0.0000000000         0.0000000000        -0.0035974455        5.7756756735       -2.9299579277
atom         0.0000000000       29.0771700000       28.7623000000 H         0.0000000000         0.0000000000        -0.0042431408       -5.7762752477       -2.9303499570
atom         6.9509500000       29.9629200000        1.0922500000 H         0.0000000000         0.0000000000         1.5209584441       -0.2247711615        6.4209789885
atom         5.6175600000       29.9595400000       29.9139500000 H         0.0000000000         0.0000000000        -6.5720947596       -0.2384460664       -0.7032544722
atom         7.1533200000       29.1507600000       29.5219800000 H         0.0000000000         0.0000000000         2.7636452554       -5.1428250544       -3.0920043986
atom         7.0781700000        0.9267900000       29.6019100000 H         0.0000000000         0.0000000000         2.3034950804        5.6147130483       -2.6086553122
energy     -1292.4436669665
charge 0
end
