begin
comment generated by PY
lattice        30.0000000000         0.0000000000         0.0000000000
lattice         0.0000000000        30.0000000000         0.0000000000
lattice         0.0000000000         0.0000000000        30.0000000000
atom         0.9000000000        1.9000000000        3.1649900000 N         0.0000000000         0.0000000000      -201.2768631784        6.1950783535      -53.6995414582
atom         0.9000000000        1.9000000000        2.0350100000 N         0.0000000000         0.0000000000      -206.6602579615        6.2593927281       50.4389729747
atom         1.7129300000        1.8714300000        2.6045000000 H         0.0000000000         0.0000000000       287.4420856676      -10.2662379459        0.0666536625
atom         2.4129300000        1.8714300000        2.6045000000 H         0.0000000000         0.0000000000       120.4953324118       -2.1882231358        3.1939052604
energy      -526.1656983542
charge 0
end
begin
comment generated by PY
lattice        30.0000000000         0.0000000000         0.0000000000
lattice         0.0000000000        30.0000000000         0.0000000000
lattice         0.0000000000         0.0000000000        30.0000000000
atom         0.9000000000        1.9000000000        3.1649900000 N         0.0000000000         0.0000000000       -55.8767329771        1.0316872218     -267.3530407926
atom         0.9000000000        1.9000000000        2.0350100000 N         0.0000000000         0.0000000000       -56.5599143080        1.0432030637      266.7734909094
atom         2.1856600000        1.8714300000        2.6045000000 H         0.0000000000         0.0000000000       172.9766669507       -1.2967648568        0.3540556537
atom         2.8856600000        1.8714300000        2.6045000000 H         0.0000000000         0.0000000000       -60.5402196655       -0.7781254288        0.2255878295
energy      -652.4261423842
charge 0
end
begin
comment generated by PY
lattice        30.0000000000         0.0000000000         0.0000000000
lattice         0.0000000000        30.0000000000         0.0000000000
lattice         0.0000000000         0.0000000000        30.0000000000
atom         0.9000000000        1.9000000000        3.1649900000 N         0.0000000000         0.0000000000        -4.9687549225        0.0583172277     -269.9460313929
atom         0.9000000000        1.9000000000        2.0350100000 N         0.0000000000         0.0000000000        -5.0593357424        0.0580508701      269.8917957057
atom         2.6583800000        1.8714300000        2.6045000000 H         0.0000000000         0.0000000000       103.7176216876       -0.0024374366        0.0346174583
atom         3.3583800000        1.8714300000        2.6045000000 H         0.0000000000         0.0000000000       -93.6897310227       -0.1139316612        0.0195480289
energy      -675.2891036782
charge 0
end
begin
comment generated by PY
lattice        30.0000000000         0.0000000000         0.0000000000
lattice         0.0000000000        30.0000000000         0.0000000000
lattice         0.0000000000         0.0000000000        30.0000000000
atom         0.9000000000        1.9000000000        3.1649900000 N         0.0000000000         0.0000000000         2.1842609324       -0.0284371056     -266.7885830250
atom         0.9000000000        1.9000000000        2.0350100000 N         0.0000000000         0.0000000000         2.1506873606       -0.0287485458      266.7827552112
atom         3.1311100000        1.8714300000        2.6045000000 H         0.0000000000         0.0000000000        91.8029399768        0.0604432937        0.0027560814
atom         3.8311100000        1.8714300000        2.6045000000 H         0.0000000000         0.0000000000       -96.1377682698       -0.0032343817        0.0029820723
energy      -675.0560607264
charge 0
end
begin
comment generated by PY
lattice        30.0000000000         0.0000000000         0.0000000000
lattice         0.0000000000        30.0000000000         0.0000000000
lattice         0.0000000000         0.0000000000        30.0000000000
atom         0.9000000000        1.9000000000        3.1649900000 N         0.0000000000         0.0000000000         2.1114026072       -0.0216053071     -265.4673125601
atom         0.9000000000        1.9000000000        2.0350100000 N         0.0000000000         0.0000000000         2.0965412165       -0.0222965868      265.4647570968
atom         3.6038400000        1.8714300000        2.6045000000 H         0.0000000000         0.0000000000        90.5650489566        0.0396811000        0.0001746671
atom         4.3038400000        1.8714300000        2.6045000000 H         0.0000000000         0.0000000000       -94.7728258408        0.0042208640        0.0022938016
energy      -672.8186761319
charge 0
end
begin
comment generated by PY
lattice        30.0000000000         0.0000000000         0.0000000000
lattice         0.0000000000        30.0000000000         0.0000000000
lattice         0.0000000000         0.0000000000        30.0000000000
atom         0.9000000000        1.9000000000        3.1649900000 N         0.0000000000         0.0000000000         0.8071347015       -0.0062842501     -264.9258643589
atom         0.9000000000        1.9000000000        2.0350100000 N         0.0000000000         0.0000000000         0.8009538283       -0.0069414566      264.9211076183
atom         4.0765700000        1.8714300000        2.6045000000 H         0.0000000000         0.0000000000        92.3701002075        0.0119306367        0.0025560915
atom         4.7765700000        1.8714300000        2.6045000000 H         0.0000000000         0.0000000000       -93.9785897979        0.0013181105        0.0027799960
energy      -671.5056120841
charge 0
end
begin
comment generated by PY
lattice        30.0000000000         0.0000000000         0.0000000000
lattice         0.0000000000        30.0000000000         0.0000000000
lattice         0.0000000000         0.0000000000        30.0000000000
atom         0.9000000000        1.9000000000        3.1649900000 N         0.0000000000         0.0000000000         0.1780172816       -0.0012109206     -264.7886480617
atom         0.9000000000        1.9000000000        2.0350100000 N         0.0000000000         0.0000000000         0.1750082534       -0.0016184515      264.7827676220
atom         4.5492900000        1.8714300000        2.6045000000 H         0.0000000000         0.0000000000        93.3359008278        0.0022865642        0.0030316631
atom         5.2492900000        1.8714300000        2.6045000000 H         0.0000000000         0.0000000000       -93.6892132629        0.0005197423        0.0027850825
energy      -671.0860043134
charge 0
end
begin
comment generated by PY
lattice        30.0000000000         0.0000000000         0.0000000000
lattice         0.0000000000        30.0000000000         0.0000000000
lattice         0.0000000000         0.0000000000        30.0000000000
atom         0.9000000000        1.9000000000        3.1649900000 N         0.0000000000         0.0000000000        -0.0446780048        0.0000924968     -264.7513982974
atom         0.9000000000        1.9000000000        2.0350100000 N         0.0000000000         0.0000000000        -0.0465606064       -0.0009904240      264.7452872522
atom         5.0220200000        1.8714300000        2.6045000000 H         0.0000000000         0.0000000000        93.7305668619       -0.0001295926        0.0034250908
atom         5.7220200000        1.8714300000        2.6045000000 H         0.0000000000         0.0000000000       -93.6399953113        0.0010275198        0.0029454760
energy      -671.0444013226
charge 0
end
begin
comment generated by PY
lattice        30.0000000000         0.0000000000         0.0000000000
lattice         0.0000000000        30.0000000000         0.0000000000
lattice         0.0000000000         0.0000000000        30.0000000000
atom         0.9000000000        1.9000000000        3.1649900000 N         0.0000000000         0.0000000000        -0.0971331761       -0.0000972108     -264.7473582068
atom         0.9000000000        1.9000000000        2.0350100000 N         0.0000000000         0.0000000000        -0.0986302933       -0.0008816835      264.7417775542
atom         5.4947500000        1.8714300000        2.6045000000 H         0.0000000000         0.0000000000        93.8353713780       -0.0003344119        0.0031664262
atom         6.1947500000        1.8714300000        2.6045000000 H         0.0000000000         0.0000000000       -93.6394629086        0.0013133102        0.0026514034
energy      -671.1232798681
charge 0
end
begin
comment generated by PY
lattice        30.0000000000         0.0000000000         0.0000000000
lattice         0.0000000000        30.0000000000         0.0000000000
lattice         0.0000000000         0.0000000000        30.0000000000
atom         0.9000000000        1.9000000000        3.1649900000 N         0.0000000000         0.0000000000        -0.0934659778       -0.0009546207     -264.7449178090
atom         0.9000000000        1.9000000000        2.0350100000 N         0.0000000000         0.0000000000        -0.0948729134       -0.0015546890      264.7390373693
atom         5.9674700000        1.8714300000        2.6045000000 H         0.0000000000         0.0000000000        93.8435387137        0.0011278131        0.0030798421
atom         6.6674700000        1.8714300000        2.6045000000 H         0.0000000000         0.0000000000       -93.6555027620        0.0013814976        0.0029767443
energy      -671.2195387877
charge 0
end
begin
comment generated by PY
lattice        30.0000000000         0.0000000000         0.0000000000
lattice         0.0000000000        30.0000000000         0.0000000000
lattice         0.0000000000         0.0000000000        30.0000000000
atom         0.9000000000        1.9000000000        3.1649900000 N         0.0000000000         0.0000000000        -0.0732433044       -0.0005246089     -264.7500601926
atom         0.9000000000        1.9000000000        2.0350100000 N         0.0000000000         0.0000000000        -0.0739104419        0.0012737618      264.7421734852
atom         6.4402000000        1.8714300000        2.6045000000 H         0.0000000000         0.0000000000        93.8194106384       -0.0002331648        0.0039143232
atom         7.1402000000        1.8714300000        2.6045000000 H         0.0000000000         0.0000000000       -93.6717710921       -0.0005159881        0.0040906902
energy      -671.3008127485
charge 0
end
begin
comment generated by PY
lattice        30.0000000000         0.0000000000         0.0000000000
lattice         0.0000000000        30.0000000000         0.0000000000
lattice         0.0000000000         0.0000000000        30.0000000000
atom         0.9000000000        1.9000000000        3.1649900000 N         0.0000000000         0.0000000000        -0.0506793115       -0.0002068360     -264.7483410581
atom         0.9000000000        1.9000000000        2.0350100000 N         0.0000000000         0.0000000000        -0.0507236537        0.0006923044      264.7403159874
atom         6.9129300000        1.8714300000        2.6045000000 H         0.0000000000         0.0000000000        93.7868152031       -0.0002537973        0.0041136805
atom         7.6129300000        1.8714300000        2.6045000000 H         0.0000000000         0.0000000000       -93.6848318773       -0.0002316712        0.0039640664
energy      -671.3609527616
charge 0
end
