begin
comment generated by PY
lattice        30.0000000000         0.0000000000         0.0000000000
lattice         0.0000000000        30.0000000000         0.0000000000
lattice         0.0000000000         0.0000000000        30.0000000000
atom         3.8448500000        2.0448500000        4.2683700000 H         0.0000000000         0.0000000000       -56.3489092316      -43.2296157016      -93.7612083603
atom         2.3260300000        1.7842600000        3.3786600000 H         0.0000000000         0.0000000000       240.8471665186        9.6936309213       -6.5993353307
atom         3.5842600000        0.5260300000        3.3786600000 H         0.0000000000         0.0000000000       -16.6668929305      114.9955921058       -1.8792483151
atom         3.8448500000        2.0448500000        2.4889500000 H         0.0000000000         0.0000000000       -20.4439043733      -52.2129541046       98.8375175796
atom         1.5000000000        1.7000000000        2.6000000000 C         0.0000000000         0.0000000000        27.1706481638       -3.2915155316     -104.3545540409
atom         3.4000000000        1.6000000000        3.3786600000 C         0.0000000000         0.0000000000       213.9580984376      -16.8089663445      -80.8762066930
atom         1.5000000000        1.7000000000        3.7786600000 O         0.0000000000         0.0000000000      -364.1617503397       -7.1966722157      -30.7929261628
atom         1.5000000000        1.7000000000        1.4213400000 O         0.0000000000         0.0000000000       -24.3548483054       -1.9490740896      219.4257132627
energy     -1217.9500602567
charge 0
end
begin
comment generated by PY
lattice        30.0000000000         0.0000000000         0.0000000000
lattice         0.0000000000        30.0000000000         0.0000000000
lattice         0.0000000000         0.0000000000        30.0000000000
atom         4.1630400000        2.0448500000        4.2683700000 H         0.0000000000         0.0000000000       -48.5817608027      -46.7216220920      -94.9784032332
atom         2.6442100000        1.7842600000        3.3786600000 H         0.0000000000         0.0000000000       191.1801891026      -15.9555815518        6.3090159992
atom         3.9024500000        0.5260300000        3.3786600000 H         0.0000000000         0.0000000000       -17.8471709625      114.7620597270       -0.7339252466
atom         4.1630400000        2.0448500000        2.4889500000 H         0.0000000000         0.0000000000       -35.9153665302      -50.0248919318       97.1591958654
atom         1.5000000000        1.7000000000        2.6000000000 C         0.0000000000         0.0000000000       -19.8767062640       -1.8931426851      -34.5068037698
atom         3.7181800000        1.6000000000        3.3786600000 C         0.0000000000         0.0000000000        64.1476723507        0.7528197830      -26.3735789487
atom         1.5000000000        1.7000000000        3.7786600000 O         0.0000000000         0.0000000000      -132.3362029663       -0.6065259783     -164.7789707631
atom         1.5000000000        1.7000000000        1.4213400000 O         0.0000000000         0.0000000000        -0.7706909881       -0.3130179710      217.9030610969
energy     -1295.6661737935
charge 0
end
begin
comment generated by PY
lattice        30.0000000000         0.0000000000         0.0000000000
lattice         0.0000000000        30.0000000000         0.0000000000
lattice         0.0000000000         0.0000000000        30.0000000000
atom         4.4812200000        2.0448500000        4.2683700000 H         0.0000000000         0.0000000000       -48.1266568887      -47.7737216179      -95.9432284258
atom         2.9623900000        1.7842600000        3.3786600000 H         0.0000000000         0.0000000000       153.5768760370      -20.2277882027        5.3856306967
atom         4.2206300000        0.5260300000        3.3786600000 H         0.0000000000         0.0000000000       -18.7720670217      115.5638823225       -0.3021661176
atom         4.4812200000        2.0448500000        2.4889500000 H         0.0000000000         0.0000000000       -42.7152087401      -49.2203375629       96.8529668137
atom         1.5000000000        1.7000000000        2.6000000000 C         0.0000000000         0.0000000000       -11.3789014394       -0.8104966522      -13.4169497882
atom         4.0363600000        1.6000000000        3.3786600000 C         0.0000000000         0.0000000000        15.5152539668        2.5283860452      -10.1508766100
atom         1.5000000000        1.7000000000        3.7786600000 O         0.0000000000         0.0000000000       -48.4245569153        0.0420481783     -190.5953544625
atom         1.5000000000        1.7000000000        1.4213400000 O         0.0000000000         0.0000000000         0.3252240620       -0.1021231103      208.1706289742
energy     -1327.2310465557
charge 0
end
begin
comment generated by PY
lattice        30.0000000000         0.0000000000         0.0000000000
lattice         0.0000000000        30.0000000000         0.0000000000
lattice         0.0000000000         0.0000000000        30.0000000000
atom         4.7994000000        2.0448500000        4.2683700000 H         0.0000000000         0.0000000000       -48.5297060510      -48.1247169043      -96.4600254822
atom         3.2805700000        1.7842600000        3.3786600000 H         0.0000000000         0.0000000000       132.1972571078      -20.3247032748        3.3287240968
atom         4.5388100000        0.5260300000        3.3786600000 H         0.0000000000         0.0000000000       -19.3521158435      116.1920473988       -0.1239820807
atom         4.7994000000        2.0448500000        2.4889500000 H         0.0000000000         0.0000000000       -45.8342036049      -48.8171119872       96.8284105262
atom         1.5000000000        1.7000000000        2.6000000000 C         0.0000000000         0.0000000000        -3.0402621468       -0.3769114377       -5.9249558735
atom         4.3545500000        1.6000000000        3.3786600000 C         0.0000000000         0.0000000000         2.9241610700        1.3875644921       -4.5521776054
atom         1.5000000000        1.7000000000        3.7786600000 O         0.0000000000         0.0000000000       -17.8660337167        0.0947954613     -195.8616570267
atom         1.5000000000        1.7000000000        1.4213400000 O         0.0000000000         0.0000000000        -0.4991068149       -0.0314050482      202.7656631666
energy     -1339.2655484521
charge 0
end
begin
comment generated by PY
lattice        30.0000000000         0.0000000000         0.0000000000
lattice         0.0000000000        30.0000000000         0.0000000000
lattice         0.0000000000         0.0000000000        30.0000000000
atom         5.1175800000        2.0448500000        4.2683700000 H         0.0000000000         0.0000000000       -48.7527838146      -48.2718173514      -96.7027366886
atom         3.5987600000        1.7842600000        3.3786600000 H         0.0000000000         0.0000000000       123.1055317962      -19.9754907395        2.1660542839
atom         4.8569900000        0.5260300000        3.3786600000 H         0.0000000000         0.0000000000       -19.7021008389      116.5664808113       -0.0455937133
atom         5.1175800000        2.0448500000        2.4889500000 H         0.0000000000         0.0000000000       -47.2466112264      -48.6109488450       96.8344047329
atom         1.5000000000        1.7000000000        2.6000000000 C         0.0000000000         0.0000000000         0.5085885277       -0.2195817440       -3.0547362329
atom         4.6727300000        1.6000000000        3.3786600000 C         0.0000000000         0.0000000000         0.4588563899        0.4471966088       -2.3035732201
atom         1.5000000000        1.7000000000        3.7786600000 O         0.0000000000         0.0000000000        -7.2391114481        0.0690839527     -196.9766704327
atom         1.5000000000        1.7000000000        1.4213400000 O         0.0000000000         0.0000000000        -1.1322233857       -0.0049801928      200.0817748709
energy     -1343.4651898496
charge 0
end
begin
comment generated by PY
lattice        30.0000000000         0.0000000000         0.0000000000
lattice         0.0000000000        30.0000000000         0.0000000000
lattice         0.0000000000         0.0000000000        30.0000000000
atom         5.4357600000        2.0448500000        4.2683700000 H         0.0000000000         0.0000000000       -48.7860095969      -48.3470180600      -96.8210630822
atom         3.9169400000        1.7842600000        3.3786600000 H         0.0000000000         0.0000000000       118.7809391984      -19.8209876436        1.3184387004
atom         5.1751700000        0.5260300000        3.3786600000 H         0.0000000000         0.0000000000       -19.8614805428      116.7500605152       -0.0112158234
atom         5.4357600000        2.0448500000        2.4889500000 H         0.0000000000         0.0000000000       -47.8851713792      -48.5162064887       96.8525830683
atom         1.5000000000        1.7000000000        2.6000000000 C         0.0000000000         0.0000000000         1.9262018402       -0.1222684808       -1.6608846005
atom         4.9909100000        1.6000000000        3.3786600000 C         0.0000000000         0.0000000000         0.4985382356       -0.0106044036       -1.2405004456
atom         1.5000000000        1.7000000000        3.7786600000 O         0.0000000000         0.0000000000        -3.3437312040        0.0606879477     -197.2967717589
atom         1.5000000000        1.7000000000        1.4213400000 O         0.0000000000         0.0000000000        -1.3288535513        0.0067067068      198.8584420025
energy     -1345.1175188134
charge 0
end
begin
comment generated by PY
lattice        30.0000000000         0.0000000000         0.0000000000
lattice         0.0000000000        30.0000000000         0.0000000000
lattice         0.0000000000         0.0000000000        30.0000000000
atom         5.7539400000        2.0448500000        4.2683700000 H         0.0000000000         0.0000000000       -48.7408538294      -48.3937895589      -96.8846141694
atom         4.2351200000        1.7842600000        3.3786600000 H         0.0000000000         0.0000000000       116.8480201813      -19.7996518592        0.7699254024
atom         5.4933600000        0.5260300000        3.3786600000 H         0.0000000000         0.0000000000       -19.9426895535      116.8525632339        0.0048243422
atom         5.7539400000        2.0448500000        2.4889500000 H         0.0000000000         0.0000000000       -48.1656952610      -48.4786606535       96.8760044258
atom         1.5000000000        1.7000000000        2.6000000000 C         0.0000000000         0.0000000000         2.3621989873       -0.0680846027       -0.9344829987
atom         5.3090900000        1.6000000000        3.3786600000 C         0.0000000000         0.0000000000         0.7881981063       -0.1768803039       -0.7139162344
atom         1.5000000000        1.7000000000        3.7786600000 O         0.0000000000         0.0000000000        -1.8700529000        0.0530603862     -197.4353183453
atom         1.5000000000        1.7000000000        1.4213400000 O         0.0000000000         0.0000000000        -1.2788867311        0.0118577281      198.3168767376
energy     -1345.5832767889
charge 0
end
begin
comment generated by PY
lattice        30.0000000000         0.0000000000         0.0000000000
lattice         0.0000000000        30.0000000000         0.0000000000
lattice         0.0000000000         0.0000000000        30.0000000000
atom         6.0721300000        2.0448500000        4.2683700000 H         0.0000000000         0.0000000000       -48.6761767044      -48.4189538444      -96.9115114021
atom         4.5533000000        1.7842600000        3.3786600000 H         0.0000000000         0.0000000000       116.6516798472      -19.8121660033        0.4976610298
atom         5.8115400000        0.5260300000        3.3786600000 H         0.0000000000         0.0000000000       -19.9702208219      116.8985862944        0.0109653425
atom         6.0721300000        2.0448500000        2.4889500000 H         0.0000000000         0.0000000000       -48.2956327941      -48.4614402903       96.8890589433
atom         1.5000000000        1.7000000000        2.6000000000 C         0.0000000000         0.0000000000         2.1096037485       -0.0484056862       -0.6151902684
atom         5.6272700000        1.6000000000        3.3786600000 C         0.0000000000         0.0000000000         0.7882697908       -0.2078131093       -0.4353914872
atom         1.5000000000        1.7000000000        3.7786600000 O         0.0000000000         0.0000000000        -1.4506328847        0.0368335011     -197.4924180352
atom         1.5000000000        1.7000000000        1.4213400000 O         0.0000000000         0.0000000000        -1.1572912419        0.0130839880      198.0571014372
energy     -1345.7804901575
charge 0
end
begin
comment generated by PY
lattice        30.0000000000         0.0000000000         0.0000000000
lattice         0.0000000000        30.0000000000         0.0000000000
lattice         0.0000000000         0.0000000000        30.0000000000
atom         6.3903100000        2.0448500000        4.2683700000 H         0.0000000000         0.0000000000       -48.6212372798      -48.4334221746      -96.9220691127
atom         4.8714800000        1.7842600000        3.3786600000 H         0.0000000000         0.0000000000       116.6438651618      -19.8450277342        0.3356500583
atom         6.1297200000        0.5260300000        3.3786600000 H         0.0000000000         0.0000000000       -19.9837781312      116.9229092607        0.0130120674
atom         6.3903100000        2.0448500000        2.4889500000 H         0.0000000000         0.0000000000       -48.3586717717      -48.4534948322       96.8965768006
atom         1.5000000000        1.7000000000        2.6000000000 C         0.0000000000         0.0000000000         1.8236532041       -0.0363373948       -0.4139987511
atom         5.9454500000        1.6000000000        3.3786600000 C         0.0000000000         0.0000000000         0.7155713688       -0.1936976427       -0.2806770409
atom         1.5000000000        1.7000000000        3.7786600000 O         0.0000000000         0.0000000000        -1.2094219809        0.0268459741     -197.5505934115
atom         1.5000000000        1.7000000000        1.4213400000 O         0.0000000000         0.0000000000        -1.0100876319        0.0121460077      197.9220818100
energy     -1345.9227200946
charge 0
end
begin
comment generated by PY
lattice        30.0000000000         0.0000000000         0.0000000000
lattice         0.0000000000        30.0000000000         0.0000000000
lattice         0.0000000000         0.0000000000        30.0000000000
atom         6.7084900000        2.0448500000        4.2683700000 H         0.0000000000         0.0000000000       -48.5824873056      -48.4483189814      -96.9388279821
atom         5.1896600000        1.7842600000        3.3786600000 H         0.0000000000         0.0000000000       116.7192018434      -19.8812153874        0.2318402201
atom         6.4479000000        0.5260300000        3.3786600000 H         0.0000000000         0.0000000000       -19.9917333116      116.9482803582        0.0109150226
atom         6.7084900000        2.0448500000        2.4889500000 H         0.0000000000         0.0000000000       -48.3969300024      -48.4568624294       96.9114656368
atom         1.5000000000        1.7000000000        2.6000000000 C         0.0000000000         0.0000000000         1.5765460761       -0.0282399442       -0.2737947450
atom         6.2636400000        1.6000000000        3.3786600000 C         0.0000000000         0.0000000000         0.5804634673       -0.1648424717       -0.1879375176
atom         1.5000000000        1.7000000000        3.7786600000 O         0.0000000000         0.0000000000        -1.0253751342        0.0201571293     -197.5952343750
atom         1.5000000000        1.7000000000        1.4213400000 O         0.0000000000         0.0000000000        -0.8794646330        0.0112756017      197.8412587281
energy     -1346.0402424752
charge 0
end
begin
comment generated by PY
lattice        30.0000000000         0.0000000000         0.0000000000
lattice         0.0000000000        30.0000000000         0.0000000000
lattice         0.0000000000         0.0000000000        30.0000000000
atom         7.0266700000        2.0448500000        4.2683700000 H         0.0000000000         0.0000000000       -48.5559471936      -48.4607612708      -96.9538614492
atom         5.5078500000        1.7842600000        3.3786600000 H         0.0000000000         0.0000000000       116.8110708092      -19.9175327946        0.1627506281
atom         6.7660800000        0.5260300000        3.3786600000 H         0.0000000000         0.0000000000       -20.0072028248      116.9725780166        0.0076860782
atom         7.0266700000        2.0448500000        2.4889500000 H         0.0000000000         0.0000000000       -48.4218857971      -48.4628796481       96.9264907075
atom         1.5000000000        1.7000000000        2.6000000000 C         0.0000000000         0.0000000000         1.3468159259       -0.0221684880       -0.1848100597
atom         6.5818200000        1.6000000000        3.3786600000 C         0.0000000000         0.0000000000         0.4660608945       -0.1344865158       -0.1323052163
atom         1.5000000000        1.7000000000        3.7786600000 O         0.0000000000         0.0000000000        -0.8876301982        0.0156788864     -197.6338020179
atom         1.5000000000        1.7000000000        1.4213400000 O         0.0000000000         0.0000000000        -0.7514616158        0.0097830078      197.8082946798
energy     -1346.1425773003
charge 0
end
begin
comment generated by PY
lattice        30.0000000000         0.0000000000         0.0000000000
lattice         0.0000000000        30.0000000000         0.0000000000
lattice         0.0000000000         0.0000000000        30.0000000000
atom         7.3448500000        2.0448500000        4.2683700000 H         0.0000000000         0.0000000000       -48.5327011212      -48.4661226946      -96.9564023670
atom         5.8260300000        1.7842600000        3.3786600000 H         0.0000000000         0.0000000000       116.8813257738      -19.9470296958        0.1192213835
atom         7.0842600000        0.5260300000        3.3786600000 H         0.0000000000         0.0000000000       -20.0252443812      116.9839743034        0.0077375484
atom         7.3448500000        2.0448500000        2.4889500000 H         0.0000000000         0.0000000000       -48.4354154568      -48.4642987826       96.9331657310
atom         1.5000000000        1.7000000000        2.6000000000 C         0.0000000000         0.0000000000         1.1476232020       -0.0174386294       -0.1297540990
atom         6.9000000000        1.6000000000        3.3786600000 C         0.0000000000         0.0000000000         0.3659595130       -0.1090822513       -0.0942675234
atom         1.5000000000        1.7000000000        3.7786600000 O         0.0000000000         0.0000000000        -0.7601209622        0.0119831303     -197.6799419169
atom         1.5000000000        1.7000000000        1.4213400000 O         0.0000000000         0.0000000000        -0.6412355673        0.0085048994      197.7991375135
energy     -1346.2320116030
charge 0
end
