begin
comment generated by PY
lattice        30.0000000000         0.0000000000         0.0000000000
lattice         0.0000000000        30.0000000000         0.0000000000
lattice         0.0000000000         0.0000000000        30.0000000000
atom         3.2329900000        1.4492200000        3.4275800000 H         0.0000000000         0.0000000000       -51.9012830256       42.3226515489      -91.1743528682
atom         1.7129300000        1.8714300000        2.6045000000 H         0.0000000000         0.0000000000       359.2389822364       -9.1106202323       -8.8309958656
atom         3.1224100000        1.3446100000        1.6546900000 H         0.0000000000         0.0000000000       -32.1978539834       55.5107620897       92.6956180547
atom         3.1316700000        2.9347400000        2.4532600000 H         0.0000000000         0.0000000000       -42.2269582689     -110.7131399323        8.6603092552
atom         0.9000000000        1.9000000000        3.1649900000 N         0.0000000000         0.0000000000      -259.6554483973        6.4758211432      -61.8022920376
atom         0.9000000000        1.9000000000        2.0350100000 N         0.0000000000         0.0000000000      -186.3726290313        5.1473043092       94.8742198766
atom         2.8000000000        1.9000000000        2.5350100000 C         0.0000000000         0.0000000000       213.1143904701       10.3674341341      -34.4218394151
energy     -1009.2521535684
charge 0
end
begin
comment generated by PY
lattice        30.0000000000         0.0000000000         0.0000000000
lattice         0.0000000000        30.0000000000         0.0000000000
lattice         0.0000000000         0.0000000000        30.0000000000
atom         3.6875400000        1.4492200000        3.4275800000 H         0.0000000000         0.0000000000       -44.2791788552       47.6062754173      -95.6237502149
atom         2.1674700000        1.8714300000        2.6045000000 H         0.0000000000         0.0000000000       205.6381655100        1.9933343556       -9.5447842269
atom         3.5769500000        1.3446100000        1.6546900000 H         0.0000000000         0.0000000000       -34.1680984650       58.6998915316       94.1496758389
atom         3.5862100000        2.9347400000        2.4532600000 H         0.0000000000         0.0000000000       -35.3163041063     -111.4374412312        8.8011025144
atom         0.9000000000        1.9000000000        3.1649900000 N         0.0000000000         0.0000000000       -57.9824082981        0.8275742218     -263.3565538791
atom         0.9000000000        1.9000000000        2.0350100000 N         0.0000000000         0.0000000000       -55.9525322252        0.8076984251      264.6560760523
atom         3.2545500000        1.9000000000        2.5350100000 C         0.0000000000         0.0000000000        22.0602564398        1.5030172798        0.9188492151
energy     -1132.7450823261
charge 0
end
begin
comment generated by PY
lattice        30.0000000000         0.0000000000         0.0000000000
lattice         0.0000000000        30.0000000000         0.0000000000
lattice         0.0000000000         0.0000000000        30.0000000000
atom         4.1420800000        1.4492200000        3.4275800000 H         0.0000000000         0.0000000000       -46.1261689214       48.8505453384      -96.7897041763
atom         2.6220200000        1.8714300000        2.6045000000 H         0.0000000000         0.0000000000       131.9052568418        3.2801118734       -8.2798918972
atom         4.0315000000        1.3446100000        1.6546900000 H         0.0000000000         0.0000000000       -34.8132174637       60.1030552490       95.2574965188
atom         4.0407600000        2.9347400000        2.4532600000 H         0.0000000000         0.0000000000       -35.6767807122     -112.2016166961        8.8445189065
atom         0.9000000000        1.9000000000        3.1649900000 N         0.0000000000         0.0000000000        -7.0867314190        0.0586539870     -270.0248748496
atom         0.9000000000        1.9000000000        2.0350100000 N         0.0000000000         0.0000000000        -7.1992347857        0.0462038462      270.0377640356
atom         3.7090900000        1.9000000000        2.5350100000 C         0.0000000000         0.0000000000        -1.0031035398       -0.1373685374        0.9548324622
energy     -1156.4569141305
charge 0
end
begin
comment generated by PY
lattice        30.0000000000         0.0000000000         0.0000000000
lattice         0.0000000000        30.0000000000         0.0000000000
lattice         0.0000000000         0.0000000000        30.0000000000
atom         4.5966300000        1.4492200000        3.4275800000 H         0.0000000000         0.0000000000       -46.8588605742       49.0651542246      -97.1018751705
atom         3.0765700000        1.8714300000        2.6045000000 H         0.0000000000         0.0000000000       116.8088591730        3.2058306969       -7.7185070677
atom         4.4860500000        1.3446100000        1.6546900000 H         0.0000000000         0.0000000000       -35.0122448673       60.4022443590       95.6754959138
atom         4.4953000000        2.9347400000        2.4532600000 H         0.0000000000         0.0000000000       -35.9412288347     -112.5267090448        8.8876060190
atom         0.9000000000        1.9000000000        3.1649900000 N         0.0000000000         0.0000000000         1.2535220937       -0.0173992973     -267.3608252231
atom         0.9000000000        1.9000000000        2.0350100000 N         0.0000000000         0.0000000000         1.2209476227       -0.0248729152      267.3305066329
atom         4.1636400000        1.9000000000        2.5350100000 C         0.0000000000         0.0000000000        -1.4712226132       -0.1044318232        0.2874253351
energy     -1157.6251431393
charge 0
end
begin
comment generated by PY
lattice        30.0000000000         0.0000000000         0.0000000000
lattice         0.0000000000        30.0000000000         0.0000000000
lattice         0.0000000000         0.0000000000        30.0000000000
atom         5.0511800000        1.4492200000        3.4275800000 H         0.0000000000         0.0000000000       -47.0652202344       49.1027925635      -97.1876147624
atom         3.5311100000        1.8714300000        2.6045000000 H         0.0000000000         0.0000000000       114.6501633350        3.1324205540       -7.5397656551
atom         4.9405900000        1.3446100000        1.6546900000 H         0.0000000000         0.0000000000       -35.0414404822       60.4739284633       95.8154318138
atom         4.9498500000        2.9347400000        2.4532600000 H         0.0000000000         0.0000000000       -36.0176516247     -112.6440372114        8.9049462076
atom         0.9000000000        1.9000000000        3.1649900000 N         0.0000000000         0.0000000000         1.7076431192       -0.0149068912     -265.9862494089
atom         0.9000000000        1.9000000000        2.0350100000 N         0.0000000000         0.0000000000         1.6901132953       -0.0248829737      265.9767296601
atom         4.6181800000        1.9000000000        2.5350100000 C         0.0000000000         0.0000000000         0.0766766522       -0.0257130046        0.0168011449
energy     -1156.1279863780
charge 0
end
begin
comment generated by PY
lattice        30.0000000000         0.0000000000         0.0000000000
lattice         0.0000000000        30.0000000000         0.0000000000
lattice         0.0000000000         0.0000000000        30.0000000000
atom         5.5057200000        1.4492200000        3.4275800000 H         0.0000000000         0.0000000000       -47.1297394602       49.1273897961      -97.2544824296
atom         3.9856600000        1.8714300000        2.6045000000 H         0.0000000000         0.0000000000       116.3949404805        3.0966389033       -7.5040809453
atom         5.3951400000        1.3446100000        1.6546900000 H         0.0000000000         0.0000000000       -35.0521229777       60.5135490636       95.8963013726
atom         5.4044000000        2.9347400000        2.4532600000 H         0.0000000000         0.0000000000       -36.0444503688     -112.7208523712        8.9127715243
atom         0.9000000000        1.9000000000        3.1649900000 N         0.0000000000         0.0000000000         0.6382877142       -0.0079619682     -265.3588326647
atom         0.9000000000        1.9000000000        2.0350100000 N         0.0000000000         0.0000000000         0.6219296607       -0.0062609666      265.3569103614
atom         5.0727300000        1.9000000000        2.5350100000 C         0.0000000000         0.0000000000         0.5710690118       -0.0025795771       -0.0480647186
energy     -1155.1017879201
charge 0
end
begin
comment generated by PY
lattice        30.0000000000         0.0000000000         0.0000000000
lattice         0.0000000000        30.0000000000         0.0000000000
lattice         0.0000000000         0.0000000000        30.0000000000
atom         5.9602700000        1.4492200000        3.4275800000 H         0.0000000000         0.0000000000       -47.1594580503       49.1381850186      -97.2879792365
atom         4.4402000000        1.8714300000        2.6045000000 H         0.0000000000         0.0000000000       117.5628411525        3.0895126356       -7.5087675445
atom         5.8496800000        1.3446100000        1.6546900000 H         0.0000000000         0.0000000000       -35.0680858917       60.5327738272       95.9375947734
atom         5.8589400000        2.9347400000        2.4532600000 H         0.0000000000         0.0000000000       -36.0680708748     -112.7629571488        8.9163704599
atom         0.9000000000        1.9000000000        3.1649900000 N         0.0000000000         0.0000000000         0.0849204755       -0.0014058456     -265.1561679291
atom         0.9000000000        1.9000000000        2.0350100000 N         0.0000000000         0.0000000000         0.0719718040       -0.0028950429      265.1524447743
atom         5.5272700000        1.9000000000        2.5350100000 C         0.0000000000         0.0000000000         0.5760920060        0.0069066764       -0.0540744581
energy     -1154.8239622469
charge 0
end
begin
comment generated by PY
lattice        30.0000000000         0.0000000000         0.0000000000
lattice         0.0000000000        30.0000000000         0.0000000000
lattice         0.0000000000         0.0000000000        30.0000000000
atom         6.4148100000        1.4492200000        3.4275800000 H         0.0000000000         0.0000000000       -47.1826592333       49.1487011728      -97.3146982524
atom         4.8947500000        1.8714300000        2.6045000000 H         0.0000000000         0.0000000000       118.1406205978        3.0927846318       -7.5225280505
atom         6.3042300000        1.3446100000        1.6546900000 H         0.0000000000         0.0000000000       -35.0891581722       60.5475899814       95.9661293049
atom         6.3134900000        2.9347400000        2.4532600000 H         0.0000000000         0.0000000000       -36.0937173274     -112.7952694712        8.9186924892
atom         0.9000000000        1.9000000000        3.1649900000 N         0.0000000000         0.0000000000        -0.1114749756        0.0006060246     -265.0850901139
atom         0.9000000000        1.9000000000        2.0350100000 N         0.0000000000         0.0000000000        -0.1211347474       -0.0008986678      265.0815807716
atom         5.9818200000        1.9000000000        2.5350100000 C         0.0000000000         0.0000000000         0.4577539792        0.0065219383       -0.0439697491
energy     -1154.8643687119
charge 0
end
begin
comment generated by PY
lattice        30.0000000000         0.0000000000         0.0000000000
lattice         0.0000000000        30.0000000000         0.0000000000
lattice         0.0000000000         0.0000000000        30.0000000000
atom         6.8693600000        1.4492200000        3.4275800000 H         0.0000000000         0.0000000000       -47.2030451135       49.1550932022      -97.3310944206
atom         5.3492900000        1.8714300000        2.6045000000 H         0.0000000000         0.0000000000       118.3895863005        3.0976996885       -7.5355115839
atom         6.7587700000        1.3446100000        1.6546900000 H         0.0000000000         0.0000000000       -35.1105524489       60.5577595888       95.9849888129
atom         6.7680300000        2.9347400000        2.4532600000 H         0.0000000000         0.0000000000       -36.1176637799     -112.8186279148        8.9198241260
atom         0.9000000000        1.9000000000        3.1649900000 N         0.0000000000         0.0000000000        -0.1477233253        0.0004016599     -265.0679828518
atom         0.9000000000        1.9000000000        2.0350100000 N         0.0000000000         0.0000000000        -0.1548072220        0.0010001495      265.0649640487
atom         6.4363600000        1.9000000000        2.5350100000 C         0.0000000000         0.0000000000         0.3444335287        0.0065758849       -0.0351025313
energy     -1154.9991861641
charge 0
end
begin
comment generated by PY
lattice        30.0000000000         0.0000000000         0.0000000000
lattice         0.0000000000        30.0000000000         0.0000000000
lattice         0.0000000000         0.0000000000        30.0000000000
atom         7.3239000000        1.4492200000        3.4275800000 H         0.0000000000         0.0000000000       -47.2171070817       49.1594397490      -97.3405325710
atom         5.8038400000        1.8714300000        2.6045000000 H         0.0000000000         0.0000000000       118.4907367247        3.1022933214       -7.5448941524
atom         7.2133200000        1.3446100000        1.6546900000 H         0.0000000000         0.0000000000       -35.1284907179       60.5635604403       95.9953808422
atom         7.2225800000        2.9347400000        2.4532600000 H         0.0000000000         0.0000000000       -36.1365091681     -112.8290136765        8.9205910654
atom         0.9000000000        1.9000000000        3.1649900000 N         0.0000000000         0.0000000000        -0.1308297427        0.0012344382     -265.0491902781
atom         0.9000000000        1.9000000000        2.0350100000 N         0.0000000000         0.0000000000        -0.1352247350       -0.0022903468      265.0445257797
atom         6.8909100000        1.9000000000        2.5350100000 C         0.0000000000         0.0000000000         0.2570896601        0.0048811023       -0.0258304858
energy     -1155.1355799553
charge 0
end
begin
comment generated by PY
lattice        30.0000000000         0.0000000000         0.0000000000
lattice         0.0000000000        30.0000000000         0.0000000000
lattice         0.0000000000         0.0000000000        30.0000000000
atom         7.7784500000        1.4492200000        3.4275800000 H         0.0000000000         0.0000000000       -47.2287585247       49.1595252978      -97.3432705086
atom         6.2583800000        1.8714300000        2.6045000000 H         0.0000000000         0.0000000000       118.5306966341        3.1049557765       -7.5527740861
atom         7.6678600000        1.3446100000        1.6546900000 H         0.0000000000         0.0000000000       -35.1444870047       60.5662311121       96.0012655395
atom         7.6771200000        2.9347400000        2.4532600000 H         0.0000000000         0.0000000000       -36.1530589081     -112.8372442819        8.9206351572
atom         0.9000000000        1.9000000000        3.1649900000 N         0.0000000000         0.0000000000        -0.0999253156        0.0022252899     -265.0420957885
atom         0.9000000000        1.9000000000        2.0350100000 N         0.0000000000         0.0000000000        -0.1037451868        0.0012465638      265.0377918625
atom         7.3454500000        1.9000000000        2.5350100000 C         0.0000000000         0.0000000000         0.1995153058        0.0029990398       -0.0218618759
energy     -1155.2459320147
charge 0
end
begin
comment generated by PY
lattice        30.0000000000         0.0000000000         0.0000000000
lattice         0.0000000000        30.0000000000         0.0000000000
lattice         0.0000000000         0.0000000000        30.0000000000
atom         8.2329900000        1.4492200000        3.4275800000 H         0.0000000000         0.0000000000       -47.2338024228       49.1591655769      -97.3414592505
atom         6.7129300000        1.8714300000        2.6045000000 H         0.0000000000         0.0000000000       118.5408559292        3.1079184113       -7.5575585705
atom         8.1224100000        1.3446100000        1.6546900000 H         0.0000000000         0.0000000000       -35.1557055006       60.5655953033       96.0009846740
atom         8.1316700000        2.9347400000        2.4532600000 H         0.0000000000         0.0000000000       -36.1638545563     -112.8339194241        8.9204723095
atom         0.9000000000        1.9000000000        3.1649900000 N         0.0000000000         0.0000000000        -0.0710518002        0.0011714849     -265.0248043979
atom         0.9000000000        1.9000000000        2.0350100000 N         0.0000000000         0.0000000000        -0.0736462101       -0.0011772595      265.0180099326
atom         7.8000000000        1.9000000000        2.5350100000 C         0.0000000000         0.0000000000         0.1576057214        0.0013152652       -0.0146911762
energy     -1155.3289210937
charge 0
end
