begin
comment generated by PY
lattice        30.0000000000         0.0000000000         0.0000000000
lattice         0.0000000000        30.0000000000         0.0000000000
lattice         0.0000000000         0.0000000000        30.0000000000
atom         3.5569100000        1.7000000000        2.3357900000 H         0.0000000000         0.0000000000       -13.6591249014        0.0035282638      129.6656942770
atom         2.3875600000        1.7000000000        3.3169900000 H         0.0000000000         0.0000000000       189.9672230881        0.0065261351        3.6153846634
atom         1.5000000000        1.7000000000        3.7786600000 O         0.0000000000         0.0000000000      -232.8586336718        0.0041278381     -107.2770843253
atom         1.5000000000        1.7000000000        1.4213400000 O         0.0000000000         0.0000000000       -19.0663546091        0.0049349573      214.9590433000
atom         3.3555300000        1.7000000000        3.2831900000 O         0.0000000000         0.0000000000        99.7094727616       -0.0179411064     -169.2195572495
atom         1.5000000000        1.7000000000        2.6000000000 C         0.0000000000         0.0000000000       -24.0930026673       -0.0011760879      -71.7438806655
energy      -991.5509190295
charge 0
end
begin
comment generated by PY
lattice        30.0000000000         0.0000000000         0.0000000000
lattice         0.0000000000        30.0000000000         0.0000000000
lattice         0.0000000000         0.0000000000        30.0000000000
atom         3.9750900000        1.7000000000        2.3357900000 H         0.0000000000         0.0000000000       -31.9029092035        0.0016372989      125.8844239262
atom         2.8057400000        1.7000000000        3.3169900000 H         0.0000000000         0.0000000000       134.7843682652        0.0032284767       -5.3910330553
atom         1.5000000000        1.7000000000        3.7786600000 O         0.0000000000         0.0000000000       -36.7896569984        0.0018217833     -182.7270436101
atom         1.5000000000        1.7000000000        1.4213400000 O         0.0000000000         0.0000000000        -5.2872478757        0.0026750236      211.1097898996
atom         3.7737200000        1.7000000000        3.2831900000 O         0.0000000000         0.0000000000       -52.7045450775       -0.0065722562     -119.8776121152
atom         1.5000000000        1.7000000000        2.6000000000 C         0.0000000000         0.0000000000        -8.1002591100       -0.0028133869      -28.9983019847
energy     -1048.2700242036
charge 0
end
begin
comment generated by PY
lattice        30.0000000000         0.0000000000         0.0000000000
lattice         0.0000000000        30.0000000000         0.0000000000
lattice         0.0000000000         0.0000000000        30.0000000000
atom         4.3932700000        1.7000000000        2.3357900000 H         0.0000000000         0.0000000000       -37.7504670053        0.0034360217      124.0486593177
atom         3.2239200000        1.7000000000        3.3169900000 H         0.0000000000         0.0000000000       127.8229479562        0.0045429280      -12.9301710564
atom         1.5000000000        1.7000000000        3.7786600000 O         0.0000000000         0.0000000000        -4.6460971845        0.0028595080     -191.5115763907
atom         1.5000000000        1.7000000000        1.4213400000 O         0.0000000000         0.0000000000        -2.8074573887        0.0034360217      204.2381177240
atom         4.1919000000        1.7000000000        3.2831900000 O         0.0000000000         0.0000000000       -81.6372212011       -0.0128216647     -108.8599592443
atom         1.5000000000        1.7000000000        2.6000000000 C         0.0000000000         0.0000000000        -0.9818351766       -0.0014528145      -14.9858103503
energy     -1058.2539355881
charge 0
end
begin
comment generated by PY
lattice        30.0000000000         0.0000000000         0.0000000000
lattice         0.0000000000        30.0000000000         0.0000000000
lattice         0.0000000000         0.0000000000        30.0000000000
atom         4.8114500000        1.7000000000        2.3357900000 H         0.0000000000         0.0000000000       -39.1829050470        0.0035743849      123.5789522622
atom         3.6421000000        1.7000000000        3.3169900000 H         0.0000000000         0.0000000000       128.5141958578        0.0040355959      -15.8971640824
atom         1.5000000000        1.7000000000        3.7786600000 O         0.0000000000         0.0000000000        -0.6093941927        0.0026750236     -194.1030561479
atom         1.5000000000        1.7000000000        1.4213400000 O         0.0000000000         0.0000000000        -2.1119023803        0.0039202932      200.4276575460
atom         4.6100800000        1.7000000000        3.2831900000 O         0.0000000000         0.0000000000       -87.4344090886       -0.0131675729     -106.2779938870
atom         1.5000000000        1.7000000000        2.6000000000 C         0.0000000000         0.0000000000         0.8244937903       -0.0010377247       -7.7288616909
energy     -1059.7350488003
charge 0
end
begin
comment generated by PY
lattice        30.0000000000         0.0000000000         0.0000000000
lattice         0.0000000000        30.0000000000         0.0000000000
lattice         0.0000000000         0.0000000000        30.0000000000
atom         5.2296400000        1.7000000000        2.3357900000 H         0.0000000000         0.0000000000       -39.5775375503        0.0027903263      123.5729993321
atom         4.0602900000        1.7000000000        3.3169900000 H         0.0000000000         0.0000000000       127.9543432181        0.0032745978      -17.1968820957
atom         1.5000000000        1.7000000000        3.7786600000 O         0.0000000000         0.0000000000        -0.2023638751        0.0015450567     -195.7417670630
atom         1.5000000000        1.7000000000        1.4213400000 O         0.0000000000         0.0000000000        -1.7940127413        0.0027903263      198.7289742866
atom         5.0282600000        1.7000000000        3.2831900000 O         0.0000000000         0.0000000000       -88.0392993605       -0.0081173129     -105.7005127291
atom         1.5000000000        1.7000000000        2.6000000000 C         0.0000000000         0.0000000000         1.6587933696       -0.0022829943       -3.6630407914
energy     -1060.2523528144
charge 0
end
begin
comment generated by PY
lattice        30.0000000000         0.0000000000         0.0000000000
lattice         0.0000000000        30.0000000000         0.0000000000
lattice         0.0000000000         0.0000000000        30.0000000000
atom         5.6478200000        1.7000000000        2.3357900000 H         0.0000000000         0.0000000000       -39.6930261676        0.0051194417      123.7300278301
atom         4.4784700000        1.7000000000        3.3169900000 H         0.0000000000         0.0000000000       128.4430899199        0.0050041389      -17.7111607021
atom         1.5000000000        1.7000000000        3.7786600000 O         0.0000000000         0.0000000000        -0.6635799450        0.0039664143     -196.5496557566
atom         1.5000000000        1.7000000000        1.4213400000 O         0.0000000000         0.0000000000        -1.4883741636        0.0050271995      197.9469335085
atom         5.4464400000        1.7000000000        3.2831900000 O         0.0000000000         0.0000000000       -88.2033333507       -0.0192786181     -105.7065576822
atom         1.5000000000        1.7000000000        2.6000000000 C         0.0000000000         0.0000000000         1.6053737070        0.0001614238       -1.7093516371
energy     -1060.4294773754
charge 0
end
begin
comment generated by PY
lattice        30.0000000000         0.0000000000         0.0000000000
lattice         0.0000000000        30.0000000000         0.0000000000
lattice         0.0000000000         0.0000000000        30.0000000000
atom         6.0660000000        1.7000000000        2.3357900000 H         0.0000000000         0.0000000000       -39.7262206541        0.0018448438      123.8711360350
atom         4.8966500000        1.7000000000        3.3169900000 H         0.0000000000         0.0000000000       128.7339720140        0.0020985099      -17.8704165275
atom         1.5000000000        1.7000000000        3.7786600000 O         0.0000000000         0.0000000000        -0.8276588921        0.0006687559     -197.0634515083
atom         1.5000000000        1.7000000000        1.4213400000 O         0.0000000000         0.0000000000        -1.2709412275        0.0017295411      197.6267752868
atom         5.8646200000        1.7000000000        3.2831900000 O         0.0000000000         0.0000000000       -88.3596534370       -0.0032745978     -105.8431616386
atom         1.5000000000        1.7000000000        2.6000000000 C         0.0000000000         0.0000000000         1.4500521967       -0.0030670529       -0.7203133573
energy     -1060.6854755525
charge 0
end
begin
comment generated by PY
lattice        30.0000000000         0.0000000000         0.0000000000
lattice         0.0000000000        30.0000000000         0.0000000000
lattice         0.0000000000         0.0000000000        30.0000000000
atom         6.4841800000        1.7000000000        2.3357900000 H         0.0000000000         0.0000000000       -39.7437599146        0.0060649241      123.9857999404
atom         5.3148300000        1.7000000000        3.3169900000 H         0.0000000000         0.0000000000       128.9195329148        0.0061802269      -17.9055067505
atom         1.5000000000        1.7000000000        3.7786600000 O         0.0000000000         0.0000000000        -0.8288455087        0.0046582307     -197.3503690737
atom         1.5000000000        1.7000000000        1.4213400000 O         0.0000000000         0.0000000000        -1.0997079511        0.0058343186      197.4915523721
atom         6.2828100000        1.7000000000        3.2831900000 O         0.0000000000         0.0000000000       -88.6034660453       -0.0236601223     -105.9921796174
atom         1.5000000000        1.7000000000        2.6000000000 C         0.0000000000         0.0000000000         1.3566265048        0.0009454825       -0.2300582108
energy     -1060.9455629742
charge 0
end
begin
comment generated by PY
lattice        30.0000000000         0.0000000000         0.0000000000
lattice         0.0000000000        30.0000000000         0.0000000000
lattice         0.0000000000         0.0000000000        30.0000000000
atom         6.9023600000        1.7000000000        2.3357900000 H         0.0000000000         0.0000000000       -39.7411290719        0.0010838458      124.0663026591
atom         5.7330100000        1.7000000000        3.3169900000 H         0.0000000000         0.0000000000       129.0199854921        0.0015911778      -17.8830727817
atom         1.5000000000        1.7000000000        3.7786600000 O         0.0000000000         0.0000000000        -0.7836069022        0.0001153027     -197.5355181934
atom         1.5000000000        1.7000000000        1.4213400000 O         0.0000000000         0.0000000000        -0.9574617850        0.0011299669      197.4784141275
atom         6.7009900000        1.7000000000        3.2831900000 O         0.0000000000         0.0000000000       -88.7960815153       -0.0003228477     -106.1364716011
atom         1.5000000000        1.7000000000        2.6000000000 C         0.0000000000         0.0000000000         1.2583337822       -0.0036205060        0.0108228302
energy     -1061.1703566557
charge 0
end
begin
comment generated by PY
lattice        30.0000000000         0.0000000000         0.0000000000
lattice         0.0000000000        30.0000000000         0.0000000000
lattice         0.0000000000         0.0000000000        30.0000000000
atom         7.3205400000        1.7000000000        2.3357900000 H         0.0000000000         0.0000000000       -39.7542534796        0.0063416507      124.1250130414
atom         6.1511900000        1.7000000000        3.3169900000 H         0.0000000000         0.0000000000       129.1018491390        0.0070565277      -17.8389384600
atom         1.5000000000        1.7000000000        3.7786600000 O         0.0000000000         0.0000000000        -0.7198970163        0.0051425022     -197.6403347704
atom         1.5000000000        1.7000000000        1.4213400000 O         0.0000000000         0.0000000000        -0.8414534290        0.0062263480      197.4754686450
atom         7.1191700000        1.7000000000        3.2831900000 O         0.0000000000         0.0000000000       -88.9411946436       -0.0261737220     -106.2569269002
atom         1.5000000000        1.7000000000        2.6000000000 C         0.0000000000         0.0000000000         1.1549094295        0.0014066934        0.1350951642
energy     -1061.3588978816
charge 0
end
begin
comment generated by PY
lattice        30.0000000000         0.0000000000         0.0000000000
lattice         0.0000000000        30.0000000000         0.0000000000
lattice         0.0000000000         0.0000000000        30.0000000000
atom         7.7387300000        1.7000000000        2.3357900000 H         0.0000000000         0.0000000000       -39.7463890755        0.0006226348      124.1690589253
atom         6.5693800000        1.7000000000        3.3169900000 H         0.0000000000         0.0000000000       129.1638807146        0.0016603595      -17.7833789977
atom         1.5000000000        1.7000000000        3.7786600000 O         0.0000000000         0.0000000000        -0.6410293620        0.0000230605     -197.6833532176
atom         1.5000000000        1.7000000000        1.4213400000 O         0.0000000000         0.0000000000        -0.7249827086        0.0011530274      197.4842232568
atom         7.5373500000        1.7000000000        3.2831900000 O         0.0000000000         0.0000000000       -89.1062147239        0.0002075449     -106.3763294547
atom         1.5000000000        1.7000000000        2.6000000000 C         0.0000000000         0.0000000000         1.0551272160       -0.0036435666        0.1897609685
energy     -1061.5141838330
charge 0
end
begin
comment generated by PY
lattice        30.0000000000         0.0000000000         0.0000000000
lattice         0.0000000000        30.0000000000         0.0000000000
lattice         0.0000000000         0.0000000000        30.0000000000
atom         8.1569100000        1.7000000000        2.3357900000 H         0.0000000000         0.0000000000       -39.7609022252        0.0059726819      124.1929686933
atom         6.9875600000        1.7000000000        3.3169900000 H         0.0000000000         0.0000000000       129.2157571340        0.0073101937      -17.7334073315
atom         1.5000000000        1.7000000000        3.7786600000 O         0.0000000000         0.0000000000        -0.5746067383        0.0049349573     -197.7115269396
atom         1.5000000000        1.7000000000        1.4213400000 O         0.0000000000         0.0000000000        -0.6282800372        0.0059957425      197.4905103900
atom         7.9555300000        1.7000000000        3.2831900000 O         0.0000000000         0.0000000000       -89.1782174457       -0.0253896634     -106.4441515938
atom         1.5000000000        1.7000000000        2.6000000000 C         0.0000000000         0.0000000000         0.9263473124        0.0011991485        0.2056499017
energy     -1061.6407266849
charge 0
end
