begin
comment generated by PY
lattice        30.0000000000         0.0000000000         0.0000000000
lattice         0.0000000000        30.0000000000         0.0000000000
lattice         0.0000000000         0.0000000000        30.0000000000
atom         0.9000000000        1.9000000000        3.1649900000 N         0.0000000000         0.0000000000      -343.4732338559        0.0038972326      137.1660766618
atom         0.9000000000        1.9000000000        2.0350100000 N         0.0000000000         0.0000000000      -319.6207635645        0.0040125354     -122.3804142746
atom         1.7396300000        1.9000000000        2.5744700000 H         0.0000000000         0.0000000000       352.6541453516       -0.0049580178      -10.4501179371
atom         3.0616000000        1.9000000000        1.8112300000 H         0.0000000000         0.0000000000        32.6519372623       -0.0011760879       -3.6688178860
atom         2.6987700000        1.9000000000        2.7092700000 O         0.0000000000         0.0000000000       277.7879378671       -0.0017756622       -0.6667265641
energy      -505.2044988689
charge 0
end
begin
comment generated by PY
lattice        30.0000000000         0.0000000000         0.0000000000
lattice         0.0000000000        30.0000000000         0.0000000000
lattice         0.0000000000         0.0000000000        30.0000000000
atom         0.9000000000        1.9000000000        3.1649900000 N         0.0000000000         0.0000000000      -134.8686003845        0.0041739592       11.0715766455
atom         0.9000000000        1.9000000000        2.0350100000 N         0.0000000000         0.0000000000      -114.5617354711        0.0039894748       -0.2636512454
atom         2.0487200000        1.9000000000        2.5744700000 H         0.0000000000         0.0000000000       143.2357282013       -0.0026519630       -5.8970202771
atom         3.3706900000        1.9000000000        1.8112300000 H         0.0000000000         0.0000000000        15.8267538878       -0.0011530274       -1.7190716121
atom         3.0078600000        1.9000000000        2.7092700000 O         0.0000000000         0.0000000000        90.3678537664       -0.0043584436       -3.1918335109
energy      -636.8530101143
charge 0
end
begin
comment generated by PY
lattice        30.0000000000         0.0000000000         0.0000000000
lattice         0.0000000000        30.0000000000         0.0000000000
lattice         0.0000000000         0.0000000000        30.0000000000
atom         0.9000000000        1.9000000000        3.1649900000 N         0.0000000000         0.0000000000       -49.7243297116        0.0068720433      -25.1905355292
atom         0.9000000000        1.9000000000        2.0350100000 N         0.0000000000         0.0000000000       -41.2716011405        0.0012222090       29.3049062633
atom         2.3578100000        1.9000000000        2.5744700000 H         0.0000000000         0.0000000000        54.5165883151       -0.0019370860       -1.5936683520
atom         3.6797800000        1.9000000000        1.8112300000 H         0.0000000000         0.0000000000         7.8371964235       -0.0009685430       -2.4252086528
atom         3.3169500000        1.9000000000        2.7092700000 O         0.0000000000         0.0000000000        28.6421461135       -0.0052116839       -0.0954937293
energy      -685.2911232323
charge 0
end
begin
comment generated by PY
lattice        30.0000000000         0.0000000000         0.0000000000
lattice         0.0000000000        30.0000000000         0.0000000000
lattice         0.0000000000         0.0000000000        30.0000000000
atom         0.9000000000        1.9000000000        3.1649900000 N         0.0000000000         0.0000000000       -17.5420205095        0.0051425022      -35.4472446502
atom         0.9000000000        1.9000000000        2.0350100000 N         0.0000000000         0.0000000000       -13.9225752568        0.0028364474       36.9704630280
atom         2.6669000000        1.9000000000        2.5744700000 H         0.0000000000         0.0000000000        17.0838766021       -0.0014758751       -0.2279304566
atom         3.9888700000        1.9000000000        1.8112300000 H         0.0000000000         0.0000000000         4.7417560033       -0.0012683301       -3.3803765514
atom         3.6260400000        1.9000000000        2.7092700000 O         0.0000000000         0.0000000000         9.6389862214       -0.0052116839        2.0850886302
energy      -702.8799877860
charge 0
end
begin
comment generated by PY
lattice        30.0000000000         0.0000000000         0.0000000000
lattice         0.0000000000        30.0000000000         0.0000000000
lattice         0.0000000000         0.0000000000        30.0000000000
atom         0.9000000000        1.9000000000        3.1649900000 N         0.0000000000         0.0000000000        -5.8570563474        0.0053731077      -38.7637204231
atom         0.9000000000        1.9000000000        2.0350100000 N         0.0000000000         0.0000000000        -4.2987859366        0.0036435666       39.3820890180
atom         2.9759900000        1.9000000000        2.5744700000 H         0.0000000000         0.0000000000         3.1221906559       -0.0013605723        0.1431598821
atom         4.2979600000        1.9000000000        1.8112300000 H         0.0000000000         0.0000000000         3.6097367620       -0.0015681173       -3.9670599534
atom         3.9351300000        1.9000000000        2.7092700000 O         0.0000000000         0.0000000000         3.4239148661       -0.0060879847        3.2055314764
energy      -708.6253365328
charge 0
end
begin
comment generated by PY
lattice        30.0000000000         0.0000000000         0.0000000000
lattice         0.0000000000        30.0000000000         0.0000000000
lattice         0.0000000000         0.0000000000        30.0000000000
atom         0.9000000000        1.9000000000        3.1649900000 N         0.0000000000         0.0000000000        -1.8935477184        0.0061802269      -40.1789693151
atom         0.9000000000        1.9000000000        2.0350100000 N         0.0000000000         0.0000000000        -1.0505002041        0.0030209318       40.4435429825
atom         3.2850900000        1.9000000000        2.5744700000 H         0.0000000000         0.0000000000        -2.4936292987       -0.0012222090        0.3137387557
atom         4.6070500000        1.9000000000        1.8112300000 H         0.0000000000         0.0000000000         3.2150554827       -0.0017064806       -4.2654634447
atom         4.2442200000        1.9000000000        2.7092700000 O         0.0000000000         0.0000000000         2.2226217385       -0.0062724691        3.6871510216
energy      -710.5629287448
charge 0
end
begin
comment generated by PY
lattice        30.0000000000         0.0000000000         0.0000000000
lattice         0.0000000000        30.0000000000         0.0000000000
lattice         0.0000000000         0.0000000000        30.0000000000
atom         0.9000000000        1.9000000000        3.1649900000 N         0.0000000000         0.0000000000        -0.2634898216        0.0047965940      -41.0139225770
atom         0.9000000000        1.9000000000        2.0350100000 N         0.0000000000         0.0000000000         0.2932379285        0.0038049904       41.1408017122
atom         3.5941800000        1.9000000000        2.5744700000 H         0.0000000000         0.0000000000        -5.1367831908       -0.0009685430        0.3947504609
atom         4.9161400000        1.9000000000        1.8112300000 H         0.0000000000         0.0000000000         3.1099455049       -0.0016142384       -4.3741247469
atom         4.5533200000        1.9000000000        2.7092700000 O         0.0000000000         0.0000000000         1.9970895789       -0.0059957425        3.8524951509
energy      -710.8786112741
charge 0
end
begin
comment generated by PY
lattice        30.0000000000         0.0000000000         0.0000000000
lattice         0.0000000000        30.0000000000         0.0000000000
lattice         0.0000000000         0.0000000000        30.0000000000
atom         0.9000000000        1.9000000000        3.1649900000 N         0.0000000000         0.0000000000        -0.0234064562        0.0047274123      -41.3988031233
atom         0.9000000000        1.9000000000        2.0350100000 N         0.0000000000         0.0000000000         0.3858029682        0.0040586565       41.4760098381
atom         3.9032700000        1.9000000000        2.5744700000 H         0.0000000000         0.0000000000        -5.4866347647       -0.0011069063        0.4410791018
atom         5.2252400000        1.9000000000        1.8112300000 H         0.0000000000         0.0000000000         3.0918199142       -0.0017064806       -4.4119671062
atom         4.8624100000        1.9000000000        2.7092700000 O         0.0000000000         0.0000000000         2.0324413990       -0.0059957425        3.8937043502
energy      -710.8081347803
charge 0
end
begin
comment generated by PY
lattice        30.0000000000         0.0000000000         0.0000000000
lattice         0.0000000000        30.0000000000         0.0000000000
lattice         0.0000000000         0.0000000000        30.0000000000
atom         0.9000000000        1.9000000000        3.1649900000 N         0.0000000000         0.0000000000         0.0064108323        0.0040355959      -41.6663977225
atom         0.9000000000        1.9000000000        2.0350100000 N         0.0000000000         0.0000000000         0.3111790349        0.0035974455       41.7113657911
atom         4.2123600000        1.9000000000        2.5744700000 H         0.0000000000         0.0000000000        -5.5059825645       -0.0008532403        0.4719341151
atom         5.5343300000        1.9000000000        1.8112300000 H         0.0000000000         0.0000000000         3.0919121564       -0.0013375118       -4.4007135588
atom         5.1715000000        1.9000000000        2.7092700000 O         0.0000000000         0.0000000000         2.0964805409       -0.0054192288        3.8838113751
energy      -710.6965630063
charge 0
end
begin
comment generated by PY
lattice        30.0000000000         0.0000000000         0.0000000000
lattice         0.0000000000        30.0000000000         0.0000000000
lattice         0.0000000000         0.0000000000        30.0000000000
atom         0.9000000000        1.9000000000        3.1649900000 N         0.0000000000         0.0000000000        -0.0212618253        0.0036896877      -41.8469387528
atom         0.9000000000        1.9000000000        2.0350100000 N         0.0000000000         0.0000000000         0.2217963508        0.0042200803       41.8798230943
atom         4.5214500000        1.9000000000        2.5744700000 H         0.0000000000         0.0000000000        -5.4478238624       -0.0012683301        0.4926424872
atom         5.8434200000        1.9000000000        1.8112300000 H         0.0000000000         0.0000000000         3.1019665553       -0.0014989356       -4.3965395996
atom         5.4805900000        1.9000000000        2.7092700000 O         0.0000000000         0.0000000000         2.1452997210       -0.0051425022        3.8710358315
energy      -710.6193825806
charge 0
end
begin
comment generated by PY
lattice        30.0000000000         0.0000000000         0.0000000000
lattice         0.0000000000        30.0000000000         0.0000000000
lattice         0.0000000000         0.0000000000        30.0000000000
atom         0.9000000000        1.9000000000        3.1649900000 N         0.0000000000         0.0000000000        -0.0356977283        0.0038049904      -41.9607656178
atom         0.9000000000        1.9000000000        2.0350100000 N         0.0000000000         0.0000000000         0.1542520057        0.0044737463       41.9864550683
atom         4.8305400000        1.9000000000        2.5744700000 H         0.0000000000         0.0000000000        -5.3772355249       -0.0019832071        0.5059945445
atom         6.1525100000        1.9000000000        1.8112300000 H         0.0000000000         0.0000000000         3.1116289249       -0.0018909649       -4.3859778686
atom         5.7896800000        1.9000000000        2.7092700000 O         0.0000000000         0.0000000000         2.1470523227       -0.0043815041        3.8542938736
energy      -710.5699788156
charge 0
end
begin
comment generated by PY
lattice        30.0000000000         0.0000000000         0.0000000000
lattice         0.0000000000        30.0000000000         0.0000000000
lattice         0.0000000000         0.0000000000        30.0000000000
atom         0.9000000000        1.9000000000        3.1649900000 N         0.0000000000         0.0000000000        -0.0429156799        0.0038511115      -42.0477269444
atom         0.9000000000        1.9000000000        2.0350100000 N         0.0000000000         0.0000000000         0.1087304839        0.0048427151       42.0682738927
atom         5.1396300000        1.9000000000        2.5744700000 H         0.0000000000         0.0000000000        -5.3378250484       -0.0028133869        0.5152418242
atom         6.4616000000        1.9000000000        1.8112300000 H         0.0000000000         0.0000000000         3.1167022455       -0.0023752364       -4.3742400497
atom         6.0987700000        1.9000000000        2.7092700000 O         0.0000000000         0.0000000000         2.1553079989       -0.0035052033        3.8384743377
energy      -710.5427853561
charge 0
end
