begin
comment generated by PY
lattice        30.0000000000         0.0000000000         0.0000000000
lattice         0.0000000000        30.0000000000         0.0000000000
lattice         0.0000000000         0.0000000000        30.0000000000
atom         3.8448500000        2.0448500000        4.2683700000 H         0.0000000000         0.0000000000        -5.1326092316        6.8034842984        7.2697916397
atom         2.3260300000        1.7842600000        3.3786600000 H         0.0000000000         0.0000000000       322.7689665186       48.0760309213        9.8101646693
atom         3.5842600000        0.5260300000        3.3786600000 H         0.0000000000         0.0000000000         5.4498070695       -7.0844078942       -1.7166733151
atom         3.8448500000        2.0448500000        2.4889500000 H         0.0000000000         0.0000000000        32.1580956267       -1.8845541046       -2.5054824204
atom         1.5000000000        1.7000000000        3.7786600000 O         0.0000000000         0.0000000000      -510.8177503397      -17.1290522157      228.8160738372
atom         1.5000000000        1.7000000000        1.4213400000 O         0.0000000000         0.0000000000       -24.5330793054       -1.6979250896       17.8447132627
atom         1.5000000000        1.7000000000        2.6000000000 C         0.0000000000         0.0000000000       -76.2553518362      -10.2260155316     -182.7609540409
atom         3.4000000000        1.6000000000        3.3786600000 C         0.0000000000         0.0000000000       256.3618984376      -16.8575834445      -76.7576566930
energy      -867.2503602567
charge 0
end
begin
comment generated by PY
lattice        30.0000000000         0.0000000000         0.0000000000
lattice         0.0000000000        30.0000000000         0.0000000000
lattice         0.0000000000         0.0000000000        30.0000000000
atom         4.1630400000        2.0448500000        4.2683700000 H         0.0000000000         0.0000000000         2.1005391973        3.8767779080        6.6775967668
atom         2.6442100000        1.7842600000        3.3786600000 H         0.0000000000         0.0000000000       160.9591891026       10.7527184482       16.5409159992
atom         3.9024500000        0.5260300000        3.3786600000 H         0.0000000000         0.0000000000         3.2956290375       -7.8729402730       -0.6845062466
atom         4.1630400000        2.0448500000        2.4889500000 H         0.0000000000         0.0000000000        15.2705334698        0.6711080682       -4.7498041346
atom         1.5000000000        1.7000000000        3.7786600000 O         0.0000000000         0.0000000000      -192.3008029663       -3.5599259783       49.0100292369
atom         1.5000000000        1.7000000000        1.4213400000 O         0.0000000000         0.0000000000         0.0434230119       -0.2041319710       20.5830610969
atom         1.5000000000        1.7000000000        2.6000000000 C         0.0000000000         0.0000000000       -72.2572062640       -4.5070226851      -62.6303037698
atom         3.7181800000        1.6000000000        3.3786600000 C         0.0000000000         0.0000000000        82.8886723507        0.8434164830      -24.7469889487
energy     -1000.1796637935
charge 0
end
begin
comment generated by PY
lattice        30.0000000000         0.0000000000         0.0000000000
lattice         0.0000000000        30.0000000000         0.0000000000
lattice         0.0000000000         0.0000000000        30.0000000000
atom         4.4812200000        2.0448500000        4.2683700000 H         0.0000000000         0.0000000000         2.4958431113        3.0744783821        6.0197715742
atom         2.9623900000        1.7842600000        3.3786600000 H         0.0000000000         0.0000000000        67.6524760370        2.4641117973        9.9316706967
atom         4.2206300000        0.5260300000        3.3786600000 H         0.0000000000         0.0000000000         2.0551329783       -7.3631176775       -0.2944601376
atom         4.4812200000        2.0448500000        2.4889500000 H         0.0000000000         0.0000000000         8.0827912599        1.6561624371       -5.2830331863
atom         1.5000000000        1.7000000000        3.7786600000 O         0.0000000000         0.0000000000       -69.5426569153       -0.7810838217        8.9596455375
atom         1.5000000000        1.7000000000        1.4213400000 O         0.0000000000         0.0000000000         1.7329540620       -0.0500875103       13.0236289742
atom         1.5000000000        1.7000000000        2.6000000000 C         0.0000000000         0.0000000000       -35.4106014394       -1.7392726522      -22.6799797882
atom         4.0363600000        1.6000000000        3.3786600000 C         0.0000000000         0.0000000000        22.9340839668        2.7388090452       -9.6772206100
energy     -1054.9818265557
charge 0
end
begin
comment generated by PY
lattice        30.0000000000         0.0000000000         0.0000000000
lattice         0.0000000000        30.0000000000         0.0000000000
lattice         0.0000000000         0.0000000000        30.0000000000
atom         4.7994000000        2.0448500000        4.2683700000 H         0.0000000000         0.0000000000         2.1750939490        2.8511830957        5.6689745178
atom         3.2805700000        1.7842600000        3.3786600000 H         0.0000000000         0.0000000000        22.6252571078        1.1203967252        5.2102540968
atom         4.5388100000        0.5260300000        3.3786600000 H         0.0000000000         0.0000000000         1.4305841565       -6.9239526012       -0.1304765807
atom         4.7994000000        2.0448500000        2.4889500000 H         0.0000000000         0.0000000000         4.9231963951        2.1617880128       -5.4095894738
atom         1.5000000000        1.7000000000        3.7786600000 O         0.0000000000         0.0000000000       -23.5269937167       -0.1110365387       -0.6996570267
atom         1.5000000000        1.7000000000        1.4213400000 O         0.0000000000         0.0000000000         1.1784631851       -0.0037127482        8.6856631666
atom         1.5000000000        1.7000000000        2.6000000000 C         0.0000000000         0.0000000000       -14.1468621468       -0.7169524377       -8.8020958735
atom         4.3545500000        1.6000000000        3.3786600000 C         0.0000000000         0.0000000000         5.3412610700        1.6222864921       -4.5230267054
energy     -1075.6793484521
charge 0
end
begin
comment generated by PY
lattice        30.0000000000         0.0000000000         0.0000000000
lattice         0.0000000000        30.0000000000         0.0000000000
lattice         0.0000000000         0.0000000000        30.0000000000
atom         5.1175800000        2.0448500000        4.2683700000 H         0.0000000000         0.0000000000         2.0571161854        2.7759826486        5.5222633114
atom         3.5987600000        1.7842600000        3.3786600000 H         0.0000000000         0.0000000000         4.3425317962        1.1244092605        2.9449472839
atom         4.8569900000        0.5260300000        3.3786600000 H         0.0000000000         0.0000000000         1.1277991611       -6.6785191887       -0.0561063133
atom         5.1175800000        2.0448500000        2.4889500000 H         0.0000000000         0.0000000000         3.5689887736        2.4303511550       -5.4555952671
atom         1.5000000000        1.7000000000        3.7786600000 O         0.0000000000         0.0000000000        -7.3458914481        0.0308319527       -3.1506704327
atom         1.5000000000        1.7000000000        1.4213400000 O         0.0000000000         0.0000000000         0.5745766143        0.0104003072        6.4917748709
atom         1.5000000000        1.7000000000        2.6000000000 C         0.0000000000         0.0000000000        -5.1814514723       -0.3544867440       -3.8921362329
atom         4.6727300000        1.6000000000        3.3786600000 C         0.0000000000         0.0000000000         0.8563303899        0.6610306088       -2.4044772201
energy     -1082.6352198496
charge 0
end
begin
comment generated by PY
lattice        30.0000000000         0.0000000000         0.0000000000
lattice         0.0000000000        30.0000000000         0.0000000000
lattice         0.0000000000         0.0000000000        30.0000000000
atom         5.4357600000        2.0448500000        4.2683700000 H         0.0000000000         0.0000000000         2.1150904031        2.7444819400        5.4619369178
atom         3.9169400000        1.7842600000        3.3786600000 H         0.0000000000         0.0000000000        -3.3050608016        1.2067123564        1.6478837004
atom         5.1751700000        0.5260300000        3.3786600000 H         0.0000000000         0.0000000000         1.0342194572       -6.5849394848       -0.0220228234
atom         5.4357600000        2.0448500000        2.4889500000 H         0.0000000000         0.0000000000         3.0037286208        2.5656935113       -5.4684169317
atom         1.5000000000        1.7000000000        3.7786600000 O         0.0000000000         0.0000000000        -1.7608112040        0.0615947237       -3.8637717589
atom         1.5000000000        1.7000000000        1.4213400000 O         0.0000000000         0.0000000000         0.2671564487        0.0150124168        5.4764420025
atom         1.5000000000        1.7000000000        2.6000000000 C         0.0000000000         0.0000000000        -1.5376081598       -0.1809791808       -1.8801726005
atom         4.9909100000        1.6000000000        3.3786600000 C         0.0000000000         0.0000000000         0.1832852356        0.1723775964       -1.3518554456
energy     -1084.8682488134
charge 0
end
begin
comment generated by PY
lattice        30.0000000000         0.0000000000         0.0000000000
lattice         0.0000000000        30.0000000000         0.0000000000
lattice         0.0000000000         0.0000000000        30.0000000000
atom         5.7539400000        2.0448500000        4.2683700000 H         0.0000000000         0.0000000000         2.2315461706        2.7260104411        5.4363858306
atom         4.2351200000        1.7842600000        3.3786600000 H         0.0000000000         0.0000000000        -6.3439798187        1.2321481408        0.9115604024
atom         5.4933600000        0.5260300000        3.3786600000 H         0.0000000000         0.0000000000         1.0144104465       -6.5454367661       -0.0049580178
atom         5.7539400000        2.0448500000        2.4889500000 H         0.0000000000         0.0000000000         2.7882047390        2.6311393465       -5.4659955742
atom         1.5000000000        1.7000000000        3.7786600000 O         0.0000000000         0.0000000000         0.0084171000        0.0591733662       -4.1123183453
atom         1.5000000000        1.7000000000        1.4213400000 O         0.0000000000         0.0000000000         0.1459732689        0.0159117781        5.0158767376
atom         1.5000000000        1.7000000000        2.6000000000 C         0.0000000000         0.0000000000        -0.1394010127       -0.0952170027       -0.9804191987
atom         5.3090900000        1.6000000000        3.3786600000 C         0.0000000000         0.0000000000         0.2948291063       -0.0237293039       -0.8001318344
energy     -1085.2096267889
charge 0
end
begin
comment generated by PY
lattice        30.0000000000         0.0000000000         0.0000000000
lattice         0.0000000000        30.0000000000         0.0000000000
lattice         0.0000000000         0.0000000000        30.0000000000
atom         6.0721300000        2.0448500000        4.2683700000 H         0.0000000000         0.0000000000         2.3504232956        2.7190461556        5.4324885979
atom         4.5533000000        1.7842600000        3.3786600000 H         0.0000000000         0.0000000000        -6.8613201528        1.2412339967        0.5575579298
atom         5.8115400000        0.5260300000        3.3786600000 H         0.0000000000         0.0000000000         1.0367791781       -6.5454137056        0.0026289025
atom         6.0721300000        2.0448500000        2.4889500000 H         0.0000000000         0.0000000000         2.7110672059        2.6674597097       -5.4669410567
atom         1.5000000000        1.7000000000        3.7786600000 O         0.0000000000         0.0000000000         0.2792171153        0.0408632911       -4.1994180352
atom         1.5000000000        1.7000000000        1.4213400000 O         0.0000000000         0.0000000000         0.0840787581        0.0146434480        4.7861014372
atom         1.5000000000        1.7000000000        2.6000000000 C         0.0000000000         0.0000000000         0.0878837485       -0.0608567862       -0.6197752884
atom         5.6272700000        1.6000000000        3.3786600000 C         0.0000000000         0.0000000000         0.3118477908       -0.0769761093       -0.4926424872
energy     -1085.1149701575
charge 0
end
begin
comment generated by PY
lattice        30.0000000000         0.0000000000         0.0000000000
lattice         0.0000000000        30.0000000000         0.0000000000
lattice         0.0000000000         0.0000000000        30.0000000000
atom         6.3903100000        2.0448500000        4.2683700000 H         0.0000000000         0.0000000000         2.4465627202        2.7177778254        5.4379308873
atom         4.8714800000        1.7842600000        3.3786600000 H         0.0000000000         0.0000000000        -6.9381348382        1.2306722658        0.3584531583
atom         6.1297200000        0.5260300000        3.3786600000 H         0.0000000000         0.0000000000         1.0633218688       -6.5560907393        0.0062032874
atom         6.3903100000        2.0448500000        2.4889500000 H         0.0000000000         0.0000000000         2.6901282283        2.6901051678       -5.4704231994
atom         1.5000000000        1.7000000000        3.7786600000 O         0.0000000000         0.0000000000         0.2692780191        0.0283644741       -4.2665934115
atom         1.5000000000        1.7000000000        1.4213400000 O         0.0000000000         0.0000000000         0.0584123681        0.0123604537        4.6620818100
atom         1.5000000000        1.7000000000        2.6000000000 C         0.0000000000         0.0000000000         0.0994832041       -0.0414398048       -0.4128529911
atom         5.9454500000        1.6000000000        3.3786600000 C         0.0000000000         0.0000000000         0.3109253688       -0.0817496427       -0.3147995409
energy     -1084.9710900946
charge 0
end
begin
comment generated by PY
lattice        30.0000000000         0.0000000000         0.0000000000
lattice         0.0000000000        30.0000000000         0.0000000000
lattice         0.0000000000         0.0000000000        30.0000000000
atom         6.7084900000        2.0448500000        4.2683700000 H         0.0000000000         0.0000000000         2.5170126944        2.7132810186        5.4341720179
atom         5.1896600000        1.7842600000        3.3786600000 H         0.0000000000         0.0000000000        -6.8597981566        1.2132846126        0.2373391601
atom         6.4479000000        0.5260300000        3.3786600000 H         0.0000000000         0.0000000000         1.0868666884       -6.5587196418        0.0055806526
atom         6.7084900000        2.0448500000        2.4889500000 H         0.0000000000         0.0000000000         2.6854699976        2.6986375706       -5.4655343632
atom         1.5000000000        1.7000000000        3.7786600000 O         0.0000000000         0.0000000000         0.2098048658        0.0200626768       -4.3172343750
atom         1.5000000000        1.7000000000        1.4213400000 O         0.0000000000         0.0000000000         0.0347983670        0.0108845787        4.5862587281
atom         1.5000000000        1.7000000000        2.6000000000 C         0.0000000000         0.0000000000         0.0781060761       -0.0296328042       -0.2744897030
atom         6.2636400000        1.6000000000        3.3786600000 C         0.0000000000         0.0000000000         0.2477394673       -0.0678210717       -0.2060921176
energy     -1084.8533424752
charge 0
end
begin
comment generated by PY
lattice        30.0000000000         0.0000000000         0.0000000000
lattice         0.0000000000        30.0000000000         0.0000000000
lattice         0.0000000000         0.0000000000        30.0000000000
atom         7.0266700000        2.0448500000        4.2683700000 H         0.0000000000         0.0000000000         2.5688528064        2.7078387292        5.4271385508
atom         5.5078500000        1.7842600000        3.3786600000 H         0.0000000000         0.0000000000        -6.7619291908        1.1944672054        0.1602477481
atom         6.7660800000        0.5260300000        3.3786600000 H         0.0000000000         0.0000000000         1.0980971752       -6.5554219834        0.0037127482
atom         7.0266700000        2.0448500000        2.4889500000 H         0.0000000000         0.0000000000         2.6882142029        2.7012203519       -5.4575092925
atom         1.5000000000        1.7000000000        3.7786600000 O         0.0000000000         0.0000000000         0.1389398018        0.0148279324       -4.3628020179
atom         1.5000000000        1.7000000000        1.4213400000 O         0.0000000000         0.0000000000         0.0279493842        0.0092472798        4.5572946798
atom         1.5000000000        1.7000000000        2.6000000000 C         0.0000000000         0.0000000000         0.0414859259       -0.0218383390       -0.1876667397
atom         6.5818200000        1.6000000000        3.3786600000 C         0.0000000000         0.0000000000         0.1983898945       -0.0503181158       -0.1403926163
energy     -1084.7713673003
charge 0
end
begin
comment generated by PY
lattice        30.0000000000         0.0000000000         0.0000000000
lattice         0.0000000000        30.0000000000         0.0000000000
lattice         0.0000000000         0.0000000000        30.0000000000
atom         7.3448500000        2.0448500000        4.2683700000 H         0.0000000000         0.0000000000         2.6122988788        2.7076773054        5.4305976330
atom         5.8260300000        1.7842600000        3.3786600000 H         0.0000000000         0.0000000000        -6.6876742262        1.1792703042        0.1133425935
atom         7.0842600000        0.5260300000        3.3786600000 H         0.0000000000         0.0000000000         1.1024556188       -6.5610256966        0.0049810784
atom         7.3448500000        2.0448500000        2.4889500000 H         0.0000000000         0.0000000000         2.6974845432        2.7065012174       -5.4548342690
atom         1.5000000000        1.7000000000        3.7786600000 O         0.0000000000         0.0000000000         0.0933260378        0.0109537603       -4.4149419169
atom         1.5000000000        1.7000000000        1.4213400000 O         0.0000000000         0.0000000000         0.0207314327        0.0080942524        4.5511375135
atom         1.5000000000        1.7000000000        2.6000000000 C         0.0000000000         0.0000000000         0.0160732020       -0.0165113524       -0.1337742390
atom         6.9000000000        1.6000000000        3.3786600000 C         0.0000000000         0.0000000000         0.1453045130       -0.0349828513       -0.0965083934
energy     -1084.7203516030
charge 0
end
