begin
comment generated by PY
lattice        30.0000000000         0.0000000000         0.0000000000
lattice         0.0000000000        30.0000000000         0.0000000000
lattice         0.0000000000         0.0000000000        30.0000000000
atom         0.0000000000        0.9228300000        1.2377000000 H         0.0000000000         0.0000000000         1.2893152394        2.6079404352        0.8831036861
atom         0.0000000000       29.0771700000        1.2377000000 H         0.0000000000         0.0000000000         1.2893152394       -2.6079404352        0.8831036861
atom         0.0000000000        0.9228300000       28.7623000000 H         0.0000000000         0.0000000000         5.8980580018        2.5793684162        0.9566437737
atom         0.0000000000       29.0771700000       28.7623000000 H         0.0000000000         0.0000000000         5.8980580018       -2.5793684162        0.9566437737
atom         0.8314200000        0.0000000000        0.0674800000 H         0.0000000000         0.0000000000       155.7896138125       -0.0000000000      -25.1252972389
atom         1.5685800000        0.0000000000        0.0674800000 H         0.0000000000         0.0000000000       245.1537341662        0.0000000000       28.2913029360
atom         0.0000000000        0.0000000000        0.6674800000 C         0.0000000000         0.0000000000      -201.7823548264        0.0000000000      170.5148114429
atom         0.0000000000        0.0000000000       29.3325200000 C         0.0000000000         0.0000000000      -213.5357396345        0.0000000000     -177.3602889992
energy      -693.2809371299
charge 0
end
begin
comment generated by PY
lattice        30.0000000000         0.0000000000         0.0000000000
lattice         0.0000000000        30.0000000000         0.0000000000
lattice         0.0000000000         0.0000000000        30.0000000000
atom         0.0000000000        0.9228300000        1.2377000000 H         0.0000000000         0.0000000000         4.0834465392        4.8884441492        1.8284708519
atom         0.0000000000       29.0771700000        1.2377000000 H         0.0000000000         0.0000000000         4.0834465392       -4.8884441492        1.8284708519
atom         0.0000000000        0.9228300000       28.7623000000 H         0.0000000000         0.0000000000         5.5084500431        4.8402706644       -1.2606509782
atom         0.0000000000       29.0771700000       28.7623000000 H         0.0000000000         0.0000000000         5.5084500431       -4.8402706644       -1.2606509782
atom         1.2223300000        0.0000000000        0.0674800000 H         0.0000000000         0.0000000000        91.4236809571        0.0000000000        1.7296102825
atom         1.9594900000        0.0000000000        0.0674800000 H         0.0000000000         0.0000000000       114.9229097740       -0.0000000000        7.1649814490
atom         0.0000000000        0.0000000000        0.6674800000 C         0.0000000000         0.0000000000      -108.4449712320       -0.0000000000        6.8427564116
atom         0.0000000000        0.0000000000       29.3325200000 C         0.0000000000         0.0000000000      -117.0854357244        0.0000000000      -16.8729878906
energy      -817.6708895284
charge 0
end
begin
comment generated by PY
lattice        30.0000000000         0.0000000000         0.0000000000
lattice         0.0000000000        30.0000000000         0.0000000000
lattice         0.0000000000         0.0000000000        30.0000000000
atom         0.0000000000        0.9228300000        1.2377000000 H         0.0000000000         0.0000000000         2.0890089233        5.2046965047        2.4902393982
atom         0.0000000000       29.0771700000        1.2377000000 H         0.0000000000         0.0000000000         2.0890089233       -5.2046965047        2.4902393982
atom         0.0000000000        0.9228300000       28.7623000000 H         0.0000000000         0.0000000000         2.4331645418        5.2396332349       -2.3445197953
atom         0.0000000000       29.0771700000       28.7623000000 H         0.0000000000         0.0000000000         2.4331645418       -5.2396101744       -2.3445197953
atom         1.6132400000        0.0000000000        0.0674800000 H         0.0000000000         0.0000000000        28.3229881290        0.0000000000        0.5725703466
atom         2.3504000000        0.0000000000        0.0674800000 H         0.0000000000         0.0000000000        48.1806566276        0.0000000000        1.6118861849
atom         0.0000000000        0.0000000000        0.6674800000 C         0.0000000000         0.0000000000       -42.4630704746       -0.0000000000       -7.0352658664
atom         0.0000000000        0.0000000000       29.3325200000 C         0.0000000000         0.0000000000       -43.0849212123       -0.0000000000        4.5593701291
energy      -869.4340670899
charge 0
end
begin
comment generated by PY
lattice        30.0000000000         0.0000000000         0.0000000000
lattice         0.0000000000        30.0000000000         0.0000000000
lattice         0.0000000000         0.0000000000        30.0000000000
atom         0.0000000000        0.9228300000        1.2377000000 H         0.0000000000         0.0000000000         0.8686447225        5.5264142100        2.8083365975
atom         0.0000000000       29.0771700000        1.2377000000 H         0.0000000000         0.0000000000         0.8686447225       -5.5264142100        2.8083365975
atom         0.0000000000        0.9228300000       28.7623000000 H         0.0000000000         0.0000000000         0.9227447682        5.5528646586       -2.7826471470
atom         0.0000000000       29.0771700000       28.7623000000 H         0.0000000000         0.0000000000         0.9227447682       -5.5528646586       -2.7826471470
atom         2.0041400000        0.0000000000        0.0674800000 H         0.0000000000         0.0000000000         0.9845009157       -0.0000000000        0.1134809568
atom         2.7413100000        0.0000000000        0.0674800000 H         0.0000000000         0.0000000000        23.2507514121       -0.0000000000        0.4620411400
atom         0.0000000000        0.0000000000        0.6674800000 C         0.0000000000         0.0000000000       -13.9028584883        0.0000000000       -8.4155088466
atom         0.0000000000        0.0000000000       29.3325200000 C         0.0000000000         0.0000000000       -13.9152189420        0.0000000000        7.7886309094
energy      -887.3043996990
charge 0
end
begin
comment generated by PY
lattice        30.0000000000         0.0000000000         0.0000000000
lattice         0.0000000000        30.0000000000         0.0000000000
lattice         0.0000000000         0.0000000000        30.0000000000
atom         0.0000000000        0.9228300000        1.2377000000 H         0.0000000000         0.0000000000         0.2979884014        5.6868003214        2.9067128953
atom         0.0000000000       29.0771700000        1.2377000000 H         0.0000000000         0.0000000000         0.2979884014       -5.6868003214        2.9067128953
atom         0.0000000000        0.9228300000       28.7623000000 H         0.0000000000         0.0000000000         0.3118939119        5.6917352787       -2.8957821955
atom         0.0000000000       29.0771700000       28.7623000000 H         0.0000000000         0.0000000000         0.3118939119       -5.6917122181       -2.8957821955
atom         2.3950500000        0.0000000000        0.0674800000 H         0.0000000000         0.0000000000        -8.4908015359        0.0000000000       -0.0634395676
atom         3.1322200000        0.0000000000        0.0674800000 H         0.0000000000         0.0000000000        15.6377265758        0.0000000000        0.1559123651
atom         0.0000000000        0.0000000000        0.6674800000 C         0.0000000000         0.0000000000        -4.2532874753       -0.0000000000       -7.7010008270
atom         0.0000000000        0.0000000000       29.3325200000 C         0.0000000000         0.0000000000        -4.1133791306       -0.0000000000        7.5866666299
energy      -892.9529109783
charge 0
end
begin
comment generated by PY
lattice        30.0000000000         0.0000000000         0.0000000000
lattice         0.0000000000        30.0000000000         0.0000000000
lattice         0.0000000000         0.0000000000        30.0000000000
atom         0.0000000000        0.9228300000        1.2377000000 H         0.0000000000         0.0000000000         0.0901436822        5.7454202345        2.9263374216
atom         0.0000000000       29.0771700000        1.2377000000 H         0.0000000000         0.0000000000         0.0901436822       -5.7454202345        2.9263374216
atom         0.0000000000        0.9228300000       28.7623000000 H         0.0000000000         0.0000000000         0.0970387860        5.7432294824       -2.9190733490
atom         0.0000000000       29.0771700000       28.7623000000 H         0.0000000000         0.0000000000         0.0970387860       -5.7432294824       -2.9190733490
atom         2.7859600000        0.0000000000        0.0674800000 H         0.0000000000         0.0000000000       -12.1247518732       -0.0000000000       -0.0585507314
atom         3.5231300000        0.0000000000        0.0674800000 H         0.0000000000         0.0000000000        12.9932351719       -0.0000000000        0.0570748563
atom         0.0000000000        0.0000000000        0.6674800000 C         0.0000000000         0.0000000000        -0.6110814618        0.0000000000       -7.3609730465
atom         0.0000000000        0.0000000000       29.3325200000 C         0.0000000000         0.0000000000        -0.6317898339        0.0000000000        7.3479438369
energy      -894.1971197857
charge 0
end
begin
comment generated by PY
lattice        30.0000000000         0.0000000000         0.0000000000
lattice         0.0000000000        30.0000000000         0.0000000000
lattice         0.0000000000         0.0000000000        30.0000000000
atom         0.0000000000        0.9228300000        1.2377000000 H         0.0000000000         0.0000000000         0.0140669343        5.7686883274        2.9303499570
atom         0.0000000000       29.0771700000        1.2377000000 H         0.0000000000         0.0000000000         0.0140669343       -5.7686883274        2.9303268964
atom         0.0000000000        0.9228300000       28.7623000000 H         0.0000000000         0.0000000000         0.0178719247        5.7658749406       -2.9259223318
atom         0.0000000000       29.0771700000       28.7623000000 H         0.0000000000         0.0000000000         0.0178719247       -5.7658749406       -2.9259223318
atom         3.1768700000        0.0000000000        0.0674800000 H         0.0000000000         0.0000000000       -12.3218273165        0.0000000000       -0.0376348144
atom         3.9140400000        0.0000000000        0.0674800000 H         0.0000000000         0.0000000000        12.0243923683        0.0000000000        0.0219767023
atom         0.0000000000        0.0000000000        0.6674800000 C         0.0000000000         0.0000000000         0.1262565004       -0.0000230605       -7.1909245655
atom         0.0000000000        0.0000000000       29.3325200000 C         0.0000000000         0.0000000000         0.1072546088       -0.0000230605        7.1977504877
energy      -894.2522605539
charge 0
end
begin
comment generated by PY
lattice        30.0000000000         0.0000000000         0.0000000000
lattice         0.0000000000        30.0000000000         0.0000000000
lattice         0.0000000000         0.0000000000        30.0000000000
atom         0.0000000000        0.9228300000        1.2377000000 H         0.0000000000         0.0000000000        -0.0089474926        5.7773129724        2.9314568633
atom         0.0000000000       29.0771700000        1.2377000000 H         0.0000000000         0.0000000000        -0.0089474926       -5.7773129724        2.9314568633
atom         0.0000000000        0.9228300000       28.7623000000 H         0.0000000000         0.0000000000        -0.0061341058        5.7749607965       -2.9281592049
atom         0.0000000000       29.0771700000       28.7623000000 H         0.0000000000         0.0000000000        -0.0061341058       -5.7749377359       -2.9281592049
atom         3.5677800000        0.0000000000        0.0674800000 H         0.0000000000         0.0000000000       -12.0792072909        0.0000000000       -0.0234986984
atom         4.3049500000        0.0000000000        0.0674800000 H         0.0000000000         0.0000000000        11.6762703355        0.0000000000        0.0095240063
atom         0.0000000000        0.0000000000        0.6674800000 C         0.0000000000         0.0000000000         0.2231569231       -0.0000000000       -7.1660422342
atom         0.0000000000        0.0000000000       29.3325200000 C         0.0000000000         0.0000000000         0.2099201686       -0.0000000000        7.1734446701
energy      -894.1014607123
charge 0
end
begin
comment generated by PY
lattice        30.0000000000         0.0000000000         0.0000000000
lattice         0.0000000000        30.0000000000         0.0000000000
lattice         0.0000000000         0.0000000000        30.0000000000
atom         0.0000000000        0.9228300000        1.2377000000 H         0.0000000000         0.0000000000        -0.0148971140        5.7837468653        2.9377523929
atom         0.0000000000       29.0771700000        1.2377000000 H         0.0000000000         0.0000000000        -0.0148971140       -5.7837468653        2.9377523929
atom         0.0000000000        0.9228300000       28.7623000000 H         0.0000000000         0.0000000000        -0.0127524831        5.7819712031       -2.9351004299
atom         0.0000000000       29.0771700000       28.7623000000 H         0.0000000000         0.0000000000        -0.0127524831       -5.7819712031       -2.9351004299
atom         3.9586900000        0.0000000000        0.0674800000 H         0.0000000000         0.0000000000       -11.8267173507        0.0000000000       -0.0157964754
atom         4.6958600000        0.0000000000        0.0674800000 H         0.0000000000         0.0000000000        11.5068444893        0.0000000000        0.0049810784
atom         0.0000000000        0.0000000000        0.6674800000 C         0.0000000000         0.0000000000         0.1918637595        0.0000000000       -7.1722916427
atom         0.0000000000        0.0000000000       29.3325200000 C         0.0000000000         0.0000000000         0.1833313567       -0.0000000000        7.1778261742
energy      -893.9561898677
charge 0
end
begin
comment generated by PY
lattice        30.0000000000         0.0000000000         0.0000000000
lattice         0.0000000000        30.0000000000         0.0000000000
lattice         0.0000000000         0.0000000000        30.0000000000
atom         0.0000000000        0.9228300000        1.2377000000 H         0.0000000000         0.0000000000        -0.0144589636        5.7827091406        2.9370375159
atom         0.0000000000       29.0771700000        1.2377000000 H         0.0000000000         0.0000000000        -0.0144589636       -5.7827091406        2.9370375159
atom         0.0000000000        0.9228300000       28.7623000000 H         0.0000000000         0.0000000000        -0.0131214518        5.7815330527       -2.9349620666
atom         0.0000000000       29.0771700000       28.7623000000 H         0.0000000000         0.0000000000        -0.0131214518       -5.7815330527       -2.9349620666
atom         4.3496000000        0.0000000000        0.0674800000 H         0.0000000000         0.0000000000       -11.6402266990        0.0000000000       -0.0112996685
atom         5.0867600000        0.0000000000        0.0674800000 H         0.0000000000         0.0000000000        11.4147175999        0.0000000000        0.0029748107
atom         0.0000000000        0.0000000000        0.6674800000 C         0.0000000000         0.0000000000         0.1425141867        0.0000000000       -7.2211800045
atom         0.0000000000        0.0000000000       29.3325200000 C         0.0000000000         0.0000000000         0.1381557431       -0.0000000000        7.2253770242
energy      -893.8515846852
charge 0
end
begin
comment generated by PY
lattice        30.0000000000         0.0000000000         0.0000000000
lattice         0.0000000000        30.0000000000         0.0000000000
lattice         0.0000000000         0.0000000000        30.0000000000
atom         0.0000000000        0.9228300000        1.2377000000 H         0.0000000000         0.0000000000        -0.0123604537        5.7839082891        2.9381213617
atom         0.0000000000       29.0771700000        1.2377000000 H         0.0000000000         0.0000000000        -0.0123604537       -5.7839082891        2.9381213617
atom         0.0000000000        0.9228300000       28.7623000000 H         0.0000000000         0.0000000000        -0.0112996685        5.7831242305       -2.9361381545
atom         0.0000000000       29.0771700000       28.7623000000 H         0.0000000000         0.0000000000        -0.0112996685       -5.7831011699       -2.9361381545
atom         4.7405100000        0.0000000000        0.0674800000 H         0.0000000000         0.0000000000       -11.5031778621        0.0000000000       -0.0085093422
atom         5.4776700000        0.0000000000        0.0674800000 H         0.0000000000         0.0000000000        11.3631542146        0.0000000000        0.0013605723
atom         0.0000000000        0.0000000000        0.6674800000 C         0.0000000000         0.0000000000         0.0951708816       -0.0000000000       -7.2504207794
atom         0.0000000000        0.0000000000       29.3325200000 C         0.0000000000         0.0000000000         0.0921499499       -0.0000000000        7.2535800745
energy      -893.7816113726
charge 0
end
begin
comment generated by PY
lattice        30.0000000000         0.0000000000         0.0000000000
lattice         0.0000000000        30.0000000000         0.0000000000
lattice         0.0000000000         0.0000000000        30.0000000000
atom         0.0000000000        0.9228300000        1.2377000000 H         0.0000000000         0.0000000000        -0.0100313384        5.7825707773        2.9370375159
atom         0.0000000000       29.0771700000        1.2377000000 H         0.0000000000         0.0000000000        -0.0100313384       -5.7825707773        2.9370375159
atom         0.0000000000        0.9228300000       28.7623000000 H         0.0000000000         0.0000000000        -0.0093164614        5.7820403847       -2.9348698244
atom         0.0000000000       29.0771700000       28.7623000000 H         0.0000000000         0.0000000000        -0.0093164614       -5.7820403847       -2.9348698244
atom         5.1314200000        0.0000000000        0.0674800000 H         0.0000000000         0.0000000000       -11.4131956038       -0.0000000000       -0.0067798011
atom         5.8685800000        0.0000000000        0.0674800000 H         0.0000000000         0.0000000000        11.3282174844       -0.0000000000       -0.0004381504
atom         0.0000000000        0.0000000000        0.6674800000 C         0.0000000000         0.0000000000         0.0625863273       -0.0000000000       -7.2840661189
atom         0.0000000000        0.0000000000       29.3325200000 C         0.0000000000         0.0000000000         0.0610873917       -0.0000000000        7.2869256269
energy      -893.7403574358
charge 0
end
