begin
comment generated by PY
lattice        30.0000000000         0.0000000000         0.0000000000
lattice         0.0000000000        30.0000000000         0.0000000000
lattice         0.0000000000         0.0000000000        30.0000000000
atom         0.0000000000        0.9228300000        1.2377000000 H         0.0000000000         0.0000000000         6.6438052394     -104.6220595648      -67.4727963139
atom         0.0000000000       29.0771700000        1.2377000000 H         0.0000000000         0.0000000000         6.6438052394      104.6220595648      -67.4727963139
atom         0.0000000000        0.9228300000       28.7623000000 H         0.0000000000         0.0000000000         9.7656880018     -103.3926315838       68.1029437737
atom         0.0000000000       29.0771700000       28.7623000000 H         0.0000000000         0.0000000000         9.7656880018      103.3926315838       68.1029437737
atom         0.8314200000        0.0000000000        0.0674800000 H         0.0000000000         0.0000000000        80.8226138125        0.0000000000      -10.4011972389
atom         1.5685800000        0.0000000000        0.0674800000 H         0.0000000000         0.0000000000        94.4777341662       -0.0000000000       28.6910729360
atom         0.0000000000        0.0000000000        0.6674800000 C         0.0000000000         0.0000000000       -79.8943548264        0.0000000000       38.0288114429
atom         0.0000000000        0.0000000000       29.3325200000 C         0.0000000000         0.0000000000      -128.2252396345        0.0000000000      -57.5792889992
energy     -1012.4837671299
charge 0
end
begin
comment generated by PY
lattice        30.0000000000         0.0000000000         0.0000000000
lattice         0.0000000000        30.0000000000         0.0000000000
lattice         0.0000000000         0.0000000000        30.0000000000
atom         0.0000000000        0.9228300000        1.2377000000 H         0.0000000000         0.0000000000         7.0047765392     -100.2155558508      -63.3358291481
atom         0.0000000000       29.0771700000        1.2377000000 H         0.0000000000         0.0000000000         7.0047765392      100.2155558508      -63.3358291481
atom         0.0000000000        0.9228300000       28.7623000000 H         0.0000000000         0.0000000000         7.6636800431      -99.7517293356       63.4489490218
atom         0.0000000000       29.0771700000       28.7623000000 H         0.0000000000         0.0000000000         7.6636800431       99.7517293356       63.4489490218
atom         1.2223300000        0.0000000000        0.0674800000 H         0.0000000000         0.0000000000       142.0567809571       -0.0000000000        4.0261502825
atom         1.9594900000        0.0000000000        0.0674800000 H         0.0000000000         0.0000000000       -18.6130902260        0.0000000000        7.2376579490
atom         0.0000000000        0.0000000000        0.6674800000 C         0.0000000000         0.0000000000       -67.0908712320        0.0000000000      -58.4063435884
atom         0.0000000000        0.0000000000       29.3325200000 C         0.0000000000         0.0000000000       -85.6902357244        0.0000000000       46.9163121094
energy     -1079.9176095284
charge 0
end
begin
comment generated by PY
lattice        30.0000000000         0.0000000000         0.0000000000
lattice         0.0000000000        30.0000000000         0.0000000000
lattice         0.0000000000         0.0000000000        30.0000000000
atom         0.0000000000        0.9228300000        1.2377000000 H         0.0000000000         0.0000000000         3.3610089233      -98.7263034953      -61.1050606018
atom         0.0000000000       29.0771700000        1.2377000000 H         0.0000000000         0.0000000000         3.3610089233       98.7263034953      -61.1050606018
atom         0.0000000000        0.9228300000       28.7623000000 H         0.0000000000         0.0000000000         3.3862735418      -98.5213667651       61.1051802047
atom         0.0000000000       29.0771700000       28.7623000000 H         0.0000000000         0.0000000000         3.3862735418       98.5213898256       61.1051802047
atom         1.6132400000        0.0000000000        0.0674800000 H         0.0000000000         0.0000000000       132.1109881290        0.0000000000        0.9625813466
atom         2.3504000000        0.0000000000        0.0674800000 H         0.0000000000         0.0000000000       -80.0483433724       -0.0000000000        1.6343795849
atom         0.0000000000        0.0000000000        0.6674800000 C         0.0000000000         0.0000000000       -31.3128704746        0.0000000000      -56.0131658664
atom         0.0000000000        0.0000000000       29.3325200000 C         0.0000000000         0.0000000000       -34.2447312123        0.0000000000       53.4158701291
energy     -1112.6863770899
charge 0
end
begin
comment generated by PY
lattice        30.0000000000         0.0000000000         0.0000000000
lattice         0.0000000000        30.0000000000         0.0000000000
lattice         0.0000000000         0.0000000000        30.0000000000
atom         0.0000000000        0.9228300000        1.2377000000 H         0.0000000000         0.0000000000         1.2921067225      -97.9425857900      -60.1789634025
atom         0.0000000000       29.0771700000        1.2377000000 H         0.0000000000         0.0000000000         1.2921067225       97.9425857900      -60.1789634025
atom         0.0000000000        0.9228300000       28.7623000000 H         0.0000000000         0.0000000000         1.2364967682      -97.8671353414       60.1622528530
atom         0.0000000000       29.0771700000       28.7623000000 H         0.0000000000         0.0000000000         1.2364967682       97.8671353414       60.1622528530
atom         2.0041400000        0.0000000000        0.0674800000 H         0.0000000000         0.0000000000       122.2685009157       -0.0000000000        0.2027151568
atom         2.7413100000        0.0000000000        0.0674800000 H         0.0000000000         0.0000000000      -103.7282485879        0.0000000000        0.4720373800
atom         0.0000000000        0.0000000000        0.6674800000 C         0.0000000000         0.0000000000       -11.5533784883        0.0000000000      -53.8467088466
atom         0.0000000000        0.0000000000       29.3325200000 C         0.0000000000         0.0000000000       -12.0436489420        0.0000000000       53.2055309094
energy     -1125.3999796990
charge 0
end
begin
comment generated by PY
lattice        30.0000000000         0.0000000000         0.0000000000
lattice         0.0000000000        30.0000000000         0.0000000000
lattice         0.0000000000         0.0000000000        30.0000000000
atom         0.0000000000        0.9228300000        1.2377000000 H         0.0000000000         0.0000000000         0.3780165014      -97.6331996786      -59.8852871047
atom         0.0000000000       29.0771700000        1.2377000000 H         0.0000000000         0.0000000000         0.3780165014       97.6331996786      -59.8852871047
atom         0.0000000000        0.9228300000       28.7623000000 H         0.0000000000         0.0000000000         0.3615328119      -97.6172647213       59.8840178045
atom         0.0000000000       29.0771700000       28.7623000000 H         0.0000000000         0.0000000000         0.3615328119       97.6172877819       59.8840178045
atom         2.3950500000        0.0000000000        0.0674800000 H         0.0000000000         0.0000000000       117.7291984641       -0.0000000000       -0.0334404676
atom         3.1322200000        0.0000000000        0.0674800000 H         0.0000000000         0.0000000000      -111.2032734242        0.0000000000        0.1608485351
atom         0.0000000000        0.0000000000        0.6674800000 C         0.0000000000         0.0000000000        -4.0321924753        0.0000000000      -52.4382008270
atom         0.0000000000        0.0000000000       29.3325200000 C         0.0000000000         0.0000000000        -3.9731381306        0.0000000000       52.3131666299
energy     -1130.0419309783
charge 0
end
begin
comment generated by PY
lattice        30.0000000000         0.0000000000         0.0000000000
lattice         0.0000000000        30.0000000000         0.0000000000
lattice         0.0000000000         0.0000000000        30.0000000000
atom         0.0000000000        0.9228300000        1.2377000000 H         0.0000000000         0.0000000000         0.0634820822      -97.5375797655      -59.8157625784
atom         0.0000000000       29.0771700000        1.2377000000 H         0.0000000000         0.0000000000         0.0634820822       97.5375797655      -59.8157625784
atom         0.0000000000        0.9228300000       28.7623000000 H         0.0000000000         0.0000000000         0.0651507860      -97.5377705176       59.8192266510
atom         0.0000000000       29.0771700000       28.7623000000 H         0.0000000000         0.0000000000         0.0651507860       97.5377705176       59.8192266510
atom         2.7859600000        0.0000000000        0.0674800000 H         0.0000000000         0.0000000000       115.2202481268       -0.0000000000       -0.0456140314
atom         3.5231300000        0.0000000000        0.0674800000 H         0.0000000000         0.0000000000      -113.9367648281        0.0000000000        0.0594990663
atom         0.0000000000        0.0000000000        0.6674800000 C         0.0000000000         0.0000000000        -0.7574794618        0.0000000000      -51.9943730465
atom         0.0000000000        0.0000000000       29.3325200000 C         0.0000000000         0.0000000000        -0.7836098339        0.0000000000       51.9734438369
energy     -1131.3074597857
charge 0
end
begin
comment generated by PY
lattice        30.0000000000         0.0000000000         0.0000000000
lattice         0.0000000000        30.0000000000         0.0000000000
lattice         0.0000000000         0.0000000000        30.0000000000
atom         0.0000000000        0.9228300000        1.2377000000 H         0.0000000000         0.0000000000        -0.0303643657      -97.5093116726      -59.8046500430
atom         0.0000000000       29.0771700000        1.2377000000 H         0.0000000000         0.0000000000        -0.0303643657       97.5093116726      -59.8046731036
atom         0.0000000000        0.9228300000       28.7623000000 H         0.0000000000         0.0000000000        -0.0254947753      -97.5121250594       59.8077776682
atom         0.0000000000       29.0771700000       28.7623000000 H         0.0000000000         0.0000000000        -0.0254947753       97.5121250594       59.8077776682
atom         3.1768700000        0.0000000000        0.0674800000 H         0.0000000000         0.0000000000       115.1421726835        0.0000000000       -0.0315170344
atom         3.9140400000        0.0000000000        0.0674800000 H         0.0000000000         0.0000000000      -115.0016076317       -0.0000000000        0.0231214523
atom         0.0000000000        0.0000000000        0.6674800000 C         0.0000000000         0.0000000000        -0.0070514996       -0.0000230605      -51.8257245655
atom         0.0000000000        0.0000000000       29.3325200000 C         0.0000000000         0.0000000000        -0.0215773912       -0.0000230605       51.8278504877
energy     -1131.5422405539
charge 0
end
begin
comment generated by PY
lattice        30.0000000000         0.0000000000         0.0000000000
lattice         0.0000000000        30.0000000000         0.0000000000
lattice         0.0000000000         0.0000000000        30.0000000000
atom         0.0000000000        0.9228300000        1.2377000000 H         0.0000000000         0.0000000000        -0.0455662926      -97.5026870276      -59.8060431367
atom         0.0000000000       29.0771700000        1.2377000000 H         0.0000000000         0.0000000000        -0.0455662926       97.5026870276      -59.8060431367
atom         0.0000000000        0.9228300000       28.7623000000 H         0.0000000000         0.0000000000        -0.0409363058      -97.5060392035       59.8088407951
atom         0.0000000000       29.0771700000       28.7623000000 H         0.0000000000         0.0000000000        -0.0409363058       97.5060622641       59.8088407951
atom         3.5677800000        0.0000000000        0.0674800000 H         0.0000000000         0.0000000000       115.2997927091        0.0000000000       -0.0205526084
atom         4.3049500000        0.0000000000        0.0674800000 H         0.0000000000         0.0000000000      -115.4137296645       -0.0000000000        0.0100336393
atom         0.0000000000        0.0000000000        0.6674800000 C         0.0000000000         0.0000000000         0.1483245231        0.0000000000      -51.8127422342
atom         0.0000000000        0.0000000000       29.3325200000 C         0.0000000000         0.0000000000         0.1385388686        0.0000000000       51.8177446701
energy     -1131.5341107123
charge 0
end
begin
comment generated by PY
lattice        30.0000000000         0.0000000000         0.0000000000
lattice         0.0000000000        30.0000000000         0.0000000000
lattice         0.0000000000         0.0000000000        30.0000000000
atom         0.0000000000        0.9228300000        1.2377000000 H         0.0000000000         0.0000000000        -0.0403205140      -97.4992531347      -59.8027476071
atom         0.0000000000       29.0771700000        1.2377000000 H         0.0000000000         0.0000000000        -0.0403205140       97.4992531347      -59.8027476071
atom         0.0000000000        0.9228300000       28.7623000000 H         0.0000000000         0.0000000000        -0.0368272831      -97.5010287969       59.8051995701
atom         0.0000000000       29.0771700000       28.7623000000 H         0.0000000000         0.0000000000        -0.0368272831       97.5010287969       59.8051995701
atom         3.9586900000        0.0000000000        0.0674800000 H         0.0000000000         0.0000000000       115.4642826493        0.0000000000       -0.0143897754
atom         4.6958600000        0.0000000000        0.0674800000 H         0.0000000000         0.0000000000      -115.6201555107       -0.0000000000        0.0051874704
atom         0.0000000000        0.0000000000        0.6674800000 C         0.0000000000         0.0000000000         0.1584919595        0.0000000000      -51.8272916427
atom         0.0000000000        0.0000000000       29.3325200000 C         0.0000000000         0.0000000000         0.1517390567        0.0000000000       51.8316261742
energy     -1131.4757998677
charge 0
end
begin
comment generated by PY
lattice        30.0000000000         0.0000000000         0.0000000000
lattice         0.0000000000        30.0000000000         0.0000000000
lattice         0.0000000000         0.0000000000        30.0000000000
atom         0.0000000000        0.9228300000        1.2377000000 H         0.0000000000         0.0000000000        -0.0311714636      -97.5012908594      -59.8053624841
atom         0.0000000000       29.0771700000        1.2377000000 H         0.0000000000         0.0000000000        -0.0311714636       97.5012908594      -59.8053624841
atom         0.0000000000        0.9228300000       28.7623000000 H         0.0000000000         0.0000000000        -0.0290021518      -97.5024669473       59.8073379334
atom         0.0000000000       29.0771700000       28.7623000000 H         0.0000000000         0.0000000000        -0.0290021518       97.5024669473       59.8073379334
atom         4.3496000000        0.0000000000        0.0674800000 H         0.0000000000         0.0000000000       115.5957733010        0.0000000000       -0.0106411745
atom         5.0867600000        0.0000000000        0.0674800000 H         0.0000000000         0.0000000000      -115.7352824001       -0.0000000000        0.0030433429
atom         0.0000000000        0.0000000000        0.6674800000 C         0.0000000000         0.0000000000         0.1318024867        0.0000000000      -51.8809800045
atom         0.0000000000        0.0000000000       29.3325200000 C         0.0000000000         0.0000000000         0.1282231631        0.0000000000       51.8845770242
energy     -1131.4198946852
charge 0
end
begin
comment generated by PY
lattice        30.0000000000         0.0000000000         0.0000000000
lattice         0.0000000000        30.0000000000         0.0000000000
lattice         0.0000000000         0.0000000000        30.0000000000
atom         0.0000000000        0.9228300000        1.2377000000 H         0.0000000000         0.0000000000        -0.0233366537      -97.5010917109      -59.8050786383
atom         0.0000000000       29.0771700000        1.2377000000 H         0.0000000000         0.0000000000        -0.0233366537       97.5010917109      -59.8050786383
atom         0.0000000000        0.9228300000       28.7623000000 H         0.0000000000         0.0000000000        -0.0217936685      -97.5018757695       59.8070618455
atom         0.0000000000       29.0771700000       28.7623000000 H         0.0000000000         0.0000000000        -0.0217936685       97.5018988301       59.8070618455
atom         4.7405100000        0.0000000000        0.0674800000 H         0.0000000000         0.0000000000       115.6988221379        0.0000000000       -0.0082100442
atom         5.4776700000        0.0000000000        0.0674800000 H         0.0000000000         0.0000000000      -115.7968457854       -0.0000000000        0.0013707117
atom         0.0000000000        0.0000000000        0.6674800000 C         0.0000000000         0.0000000000         0.0952896296        0.0000000000      -51.9129207794
atom         0.0000000000        0.0000000000       29.3325200000 C         0.0000000000         0.0000000000         0.0925593409        0.0000000000       51.9158800745
energy     -1131.3740913726
charge 0
end
begin
comment generated by PY
lattice        30.0000000000         0.0000000000         0.0000000000
lattice         0.0000000000        30.0000000000         0.0000000000
lattice         0.0000000000         0.0000000000        30.0000000000
atom         0.0000000000        0.9228300000        1.2377000000 H         0.0000000000         0.0000000000        -0.0174430384      -97.5024292227      -59.8064624841
atom         0.0000000000       29.0771700000        1.2377000000 H         0.0000000000         0.0000000000        -0.0174430384       97.5024292227      -59.8064624841
atom         0.0000000000        0.9228300000       28.7623000000 H         0.0000000000         0.0000000000        -0.0164496314      -97.5029596153       59.8086301756
atom         0.0000000000       29.0771700000       28.7623000000 H         0.0000000000         0.0000000000        -0.0164496314       97.5029596153       59.8086301756
atom         5.1314200000        0.0000000000        0.0674800000 H         0.0000000000         0.0000000000       115.7718043962        0.0000000000       -0.0066498831
atom         5.8685800000        0.0000000000        0.0674800000 H         0.0000000000         0.0000000000      -115.8367825156       -0.0000000000       -0.0004497316
atom         0.0000000000        0.0000000000        0.6674800000 C         0.0000000000         0.0000000000         0.0671818373        0.0000000000      -51.9482661189
atom         0.0000000000        0.0000000000       29.3325200000 C         0.0000000000         0.0000000000         0.0657571817        0.0000000000       51.9510256269
energy     -1131.3444874358
charge 0
end
