begin
comment generated by PY
lattice         8.7600000000         0.0000000000         0.0000000000
lattice         0.0000000000        12.5100000000         0.0000000000
lattice        -3.7840000000         0.0000000000        13.0000000000
atom         2.5120800000        9.2235700000        2.8223000000 C         0.0000000000         0.0000000000        39.1633366596      -58.3503352404       22.0276199455
atom         4.6863300000       10.5023000000        3.1412700000 C         0.0000000000         0.0000000000        11.5616132908      -51.7157925168       23.9455196026
atom         3.2185200000       11.3975000000        4.9127200000 C         0.0000000000         0.0000000000        75.5257852787       28.7226504866       -9.0136302804
atom         4.0462900000       11.7444000000        2.5947800000 C         0.0000000000         0.0000000000       -22.7486771608       43.6255065788      -16.5299852994
atom         1.8761400000       10.3987000000        2.2086100000 C         0.0000000000         0.0000000000       -14.1473233577       72.1906535225      -14.8592485960
atom         1.9054600000       10.7278000000        4.6812000000 C         0.0000000000         0.0000000000       -59.9991183022      -39.7641331169      -32.5881748471
atom         5.5398400000        9.4218200000        9.5253100000 C         0.0000000000         0.0000000000        46.3837326054       35.2638441118       25.2866057722
atom        -1.2319700000        7.8180800000        9.6040400000 C         0.0000000000         0.0000000000        27.2417251538       46.6175665623       20.4810642931
atom        -2.5763300000        7.0890500000       11.5791000000 C         0.0000000000         0.0000000000        65.2127622995      -38.4966562166      -17.9310980756
atom        -2.1367800000        6.6988000000        9.1608300000 C         0.0000000000         0.0000000000       -25.1580432171      -45.2332188046      -17.5618064597
atom         4.6634900000        8.2895400000        9.0878400000 C         0.0000000000         0.0000000000       -33.5862123045      -50.1704360129      -12.8885172234
atom         5.0361300000        8.0517800000       11.5045000000 C         0.0000000000         0.0000000000       -43.7964083001       46.5202279891      -27.1058985260
atom         2.1369900000        3.3388700000        9.0540200000 C         0.0000000000         0.0000000000       -43.8244268660       26.6025098234      -54.2239499608
atom        -0.0041100000        2.1874800000        9.8422800000 C         0.0000000000         0.0000000000       -33.9399380505       22.6339278738      -40.6928044459
atom         1.0277600000        0.4403200000        8.4161400000 C         0.0000000000         0.0000000000       -70.8821057861      -16.2269696986       36.1285685412
atom         0.8304900000        1.3064100000       10.7280000000 C         0.0000000000         0.0000000000        23.5046019246      -32.1032807040       29.0136054208
atom         2.9549500000        2.4721900000        9.9057100000 C         0.0000000000         0.0000000000        39.6936600822      -63.6546763731       50.6206932128
atom         2.2981600000        1.1068300000        7.9874400000 C         0.0000000000         0.0000000000        70.9657463937       47.6781211654      -10.8368202668
atom        -0.0630900000        3.1014400000        3.4539300000 C         0.0000000000         0.0000000000       -37.9012559274      -34.8432888977      -21.5899307442
atom         6.4450800000        4.3133400000        3.5015100000 C         0.0000000000         0.0000000000        -4.2777547168      -44.7048555285      -19.8309874446
atom         7.6660100000        5.4382000000        1.6345200000 C         0.0000000000         0.0000000000       -63.4018405247       13.1938158185       18.2941864040
atom         7.1137500000        5.5459100000        4.0593600000 C         0.0000000000         0.0000000000        26.9034960961       37.0185442706       10.3196182959
atom         0.6232700000        4.2876500000        4.0437700000 C         0.0000000000         0.0000000000         8.7122289179       55.4230753969       13.8245218067
atom         0.2540200000        4.7551300000        1.6527000000 C         0.0000000000         0.0000000000        40.2609495633      -40.2723184135       28.2915104809
atom         2.1269400000        8.2847600000        2.3559300000 H         0.0000000000         0.0000000000        10.3035681545        9.7466097989       10.3988082178
atom         5.7938600000       10.5058000000        2.9067600000 H         0.0000000000         0.0000000000       -19.2140255431       -6.0183418202        9.3210965670
atom         3.2604900000       11.8436000000        5.9528100000 H         0.0000000000         0.0000000000         6.7114957723      -12.7185840451      -24.8456189126
atom         4.7813000000       12.4092000000        2.0402700000 H         0.0000000000         0.0000000000       -20.8604103079      -12.9033451558       12.0043066310
atom         1.1311200000       10.1262000000        1.4077400000 H         0.0000000000         0.0000000000        12.8187821262       12.1906589195       16.0801201288
atom         1.2101500000       10.8628000000        5.5503900000 H         0.0000000000         0.0000000000         9.5091322755       -4.3573827891      -18.2762683582
atom         5.2285000000       10.4122000000        9.0721600000 H         0.0000000000         0.0000000000        11.1272217479      -19.0918968808       13.2748505842
atom        -0.1830000000        7.7017000000        9.2187400000 H         0.0000000000         0.0000000000       -18.6120991189        6.1858997620        6.4128155545
atom        -2.4855100000        6.5998500000       12.5981000000 H         0.0000000000         0.0000000000         1.2150602748       11.5143391674      -26.6021869758
atom        -1.5759500000        5.9497600000        8.5356700000 H         0.0000000000         0.0000000000       -15.3676644980       11.7946862495        9.5141825355
atom         3.8128300000        8.6391300000        8.4326600000 H         0.0000000000         0.0000000000        14.2817894132      -11.0745053351       13.7684154933
atom         4.5252700000        8.1159700000       12.4864000000 H         0.0000000000         0.0000000000        -1.2391354869        0.3857337866      -12.9182422698
atom         2.5620400000        4.3752000000        8.9265700000 H         0.0000000000         0.0000000000       -12.3902940836      -19.1191544486        0.9451134997
atom        -1.0340900000        2.3920800000       10.2799000000 H         0.0000000000         0.0000000000        26.8578823321       -1.6440787100      -13.1535521017
atom         0.7787400000       12.0739000000        7.7544000000 H         0.0000000000         0.0000000000         1.2977784605       17.1364546516       16.0640008058
atom         0.2766400000        1.0774300000       11.6725000000 H         0.0000000000         0.0000000000        11.8515305004       -0.5142963418       -9.5609032058
atom         3.9029700000        2.9922000000       10.2195000000 H         0.0000000000         0.0000000000       -17.0423445552      -18.2782515653        2.6961700919
atom         2.6933700000        0.5293100000        7.1051500000 H         0.0000000000         0.0000000000        -0.8842797741       21.0130019541       18.6810501575
atom         0.4522600000        2.1701700000        3.8167300000 H         0.0000000000         0.0000000000       -14.6803909856       10.7958877940      -13.2154235520
atom         5.3650200000        4.2292700000        3.8484100000 H         0.0000000000         0.0000000000        26.3660239036       -4.9391312338      -13.8477437785
atom         7.4515800000        5.9399100000        0.6427500000 H         0.0000000000         0.0000000000         0.5454742027      -10.8389879583       23.9008513211
atom         6.4314200000        6.1313800000        4.7373800000 H         0.0000000000         0.0000000000        19.2615302720       -9.9943031451      -10.5269095620
atom         1.4966200000        4.0102200000        4.6993800000 H         0.0000000000         0.0000000000       -16.1216291152        8.8733068457       -8.7414696927
atom         0.8191800000        4.9278300000        0.7067400000 H         0.0000000000         0.0000000000        -7.0042955504       -9.3519515803       17.1505215859
atom         4.7022400000        8.1277400000        2.4721900000 N         0.0000000000         0.0000000000        14.8095992361      -21.2000691196        5.1884618789
atom         3.9974300000        9.3405800000        2.4786800000 N         0.0000000000         0.0000000000       -32.8082416568       38.6172628827       16.0729944195
atom         5.5380400000       10.7328000000        5.5020200000 N         0.0000000000         0.0000000000        14.0254944826       12.7251332407       15.5571068999
atom         4.4168500000       10.4576000000        4.6641100000 N         0.0000000000         0.0000000000       -51.1034196643      -15.4063139765      -24.9482383512
atom         2.8960000000        1.1160000000        3.8681500000 N         0.0000000000         0.0000000000         8.6581058117       -4.0284471322      -20.7835956225
atom         3.5914500000       12.4366000000        3.8939000000 N         0.0000000000         0.0000000000       -13.9267722765      -26.2522892808      -13.1340889992
atom         2.6486300000       12.0911000000        0.5285400000 N         0.0000000000         0.0000000000       -12.2223671730        0.2286453335      -12.4847500883
atom         2.9685800000       11.2965000000        1.6299100000 N         0.0000000000         0.0000000000       -16.1101680229        0.5767904269       43.4673112195
atom        -0.2096000000       10.9719000000        3.4392300000 N         0.0000000000         0.0000000000       -18.7220979329       -1.0921706144       12.4346164569
atom         1.1865100000       11.1596000000        3.3736800000 N         0.0000000000         0.0000000000        39.4318767412      -10.0092233197       -0.1316065475
atom         2.3869000000        8.3894100000        5.3263800000 N         0.0000000000         0.0000000000         9.2985894722       -7.3833878992      -10.6782789992
atom         2.0019900000        9.2732900000        4.3050800000 N         0.0000000000         0.0000000000        18.6550609198       25.9928581156      -16.3424338625
atom        -1.0673400000       10.0089000000        8.3450800000 N         0.0000000000         0.0000000000        -0.6632444214        7.5807170086        5.9684618548
atom        -1.7636100000        9.1600600000        9.2221700000 N         0.0000000000         0.0000000000       -26.0022668192      -30.2519107280       15.8459402638
atom        -0.6714800000        8.6068500000       11.9696000000 N         0.0000000000         0.0000000000        13.9970838874       28.0648714151        1.9348952810
atom        -1.2129600000        7.6526200000       11.1508000000 N         0.0000000000         0.0000000000       -38.9901288835      -10.2775097353      -22.9436540942
atom         5.5328000000        4.8714400000       10.6393000000 N         0.0000000000         0.0000000000         0.2642738802        8.4376700332       -6.4321172332
atom        -2.5614000000        6.0592500000       10.4725000000 N         0.0000000000         0.0000000000        -0.4994684094       35.6158633772        7.1835913112
atom         4.7116400000        6.2592600000        7.6417300000 N         0.0000000000         0.0000000000         0.9192626254       -5.5013704549        0.0375656327
atom         5.4758000000        7.2569700000        8.3310200000 N         0.0000000000         0.0000000000        10.2536190075       15.5851254657       42.1564804888
atom         2.7320500000        7.7772000000       10.6552000000 N         0.0000000000         0.0000000000         1.2001401002        7.6788627009        3.8268057004
atom         4.1058200000        7.6881400000       10.3718000000 N         0.0000000000         0.0000000000        31.8371158589       -2.8717761650       -2.2386488194
atom         4.6908400000       10.4926000000       11.6342000000 N         0.0000000000         0.0000000000       -15.4593993580       15.7071157647        3.9097544916
atom         5.4002600000        9.4464000000       11.0529000000 N         0.0000000000         0.0000000000        22.7901169655      -32.6144638718      -22.2329741256
atom         0.4991300000        4.5091600000       10.5329000000 N         0.0000000000         0.0000000000        -3.0463214529        1.3765994136       -4.0241809308
atom         0.6828100000        3.4926800000        9.5235200000 N         0.0000000000         0.0000000000        19.3996398941      -33.2637566617      -10.9697643261
atom        -0.6819600000        1.9280900000        7.4104500000 N         0.0000000000         0.0000000000       -14.5967042568       15.1371281995      -11.8629915928
atom        -0.1853400000        1.3456400000        8.5486200000 N         0.0000000000         0.0000000000        44.4766944665        6.8823974937       32.0157428638
atom         1.7266300000       11.4698000000       10.2835000000 N         0.0000000000         0.0000000000        13.5117746545        4.0152334382       12.8126941415
atom         0.9633800000        0.0311400000        9.8863100000 N         0.0000000000         0.0000000000         3.0423319781       43.3952239464      -24.1534335035
atom         2.8114900000        1.5495100000       12.2315000000 N         0.0000000000         0.0000000000        13.6152703940       -6.3833211136       18.1947723815
atom         2.1109000000        2.0156900000       11.0947000000 N         0.0000000000         0.0000000000        -4.7825731733       -1.1650880672      -44.0591140631
atom         4.6397400000        0.7394700000        8.8897200000 N         0.0000000000         0.0000000000       -20.8150963310       10.6925765389       18.0176904333
atom         3.3181600000        1.2610700000        9.0607900000 N         0.0000000000         0.0000000000       -25.2892577352      -29.1145875606       30.3924647681
atom         3.3762400000        3.0257800000        7.0058800000 N         0.0000000000         0.0000000000        40.0603227956       10.6006341340      -17.2592059487
atom         2.1810600000        2.6154400000        7.6438600000 N         0.0000000000         0.0000000000       -83.8660475571       -0.1958762948       17.8763984557
atom         6.5696300000        1.9172700000        4.0138500000 N         0.0000000000         0.0000000000       -10.6404135793       -5.7445669942       -0.6848060338
atom         7.2701800000        3.1223900000        3.9563800000 N         0.0000000000         0.0000000000        13.1992350473       27.1094267898      -27.4264401434
atom         5.4560600000        4.4297100000        1.1469000000 N         0.0000000000         0.0000000000       -20.4538067253       -3.1618778590      -11.2215624498
atom         6.5700500000        4.4276400000        1.9691200000 N         0.0000000000         0.0000000000        29.0214229466       22.6023349231       20.0113901117
atom         7.8603700000        7.6408600000        2.7971800000 N         0.0000000000         0.0000000000         1.4156409214      -18.0008792938       13.8812046337
atom         7.3828700000        6.3485900000        2.7927600000 N         0.0000000000         0.0000000000        14.7453986704      -25.1540768028        3.1356349554
atom         0.0182500000        5.7913900000        5.9406100000 N         0.0000000000         0.0000000000         4.6019629613       -1.2764013325        5.1410032711
atom        -0.4138900000        5.0876300000        4.8186200000 N         0.0000000000         0.0000000000         3.0866312909        3.3634962303      -39.1631752357
atom         2.4302800000        5.3868800000        2.6353400000 N         0.0000000000         0.0000000000         0.2684017183       -5.1627724284       -1.4950383882
atom         1.0878200000        5.1159600000        2.8589300000 N         0.0000000000         0.0000000000       -33.6298889824       -6.8802759232        5.0429036998
atom         0.7851100000        2.3678500000        1.1925800000 N         0.0000000000         0.0000000000         6.8713053701      -10.5020502913        5.5723508216
atom         0.0493600000        3.2807500000        1.9461200000 N         0.0000000000         0.0000000000        -6.7282838513       30.6768705068       13.4506411417
atom         4.9814700000        7.6946100000        3.5943000000 O         0.0000000000         0.0000000000         4.7754935851      -13.3798683199        2.6657762896
atom         4.9864600000        7.6268800000        1.3754900000 O         0.0000000000         0.0000000000        -3.7836363545       12.2856683773       19.4880540351
atom         5.8233700000       11.9160000000        5.6022000000 O         0.0000000000         0.0000000000         9.3006188004        7.9110362983       10.0239128888
atom         6.0936000000        9.7766800000        6.0552200000 O         0.0000000000         0.0000000000       -15.0278442625        0.2542425418      -12.8805843949
atom         1.9869900000        1.2554400000        4.7113400000 O         0.0000000000         0.0000000000         2.4828139017       -1.2102406202        9.9308635776
atom         3.2649800000        1.9380500000        3.0257300000 O         0.0000000000         0.0000000000       -11.3973068862        0.2768188183        4.6475767253
atom        -1.9627400000       11.6215000000       12.7302000000 O         0.0000000000         0.0000000000        13.7363843922        3.8291809369       11.6595514382
atom         3.2437900000        0.6554400000        0.4118600000 O         0.0000000000         0.0000000000         4.5184607169       -6.0185493651        1.4206911814
atom         7.9206300000       10.8975000000        2.3797300000 O         0.0000000000         0.0000000000        10.2861113197        2.2483342495        1.4236429315
atom        -0.6995100000       10.9444000000        4.5723600000 O         0.0000000000         0.0000000000         5.8299140824        4.1406597589       -6.0139141950
atom         2.4406600000        8.8691100000        6.4643100000 O         0.0000000000         0.0000000000         0.4858165650        3.9980302694        0.0270730834
atom         2.5831000000        7.2106500000        5.0036200000 O         0.0000000000         0.0000000000        -5.8506685756       10.2637656487       -1.6690071624
atom        -1.5182300000       11.1583000000        8.2834700000 O         0.0000000000         0.0000000000         7.2425571325       -4.3446533666       -3.1943701712
atom        -0.0770100000        9.5493000000        7.7721500000 O         0.0000000000         0.0000000000        -2.7261488043        1.7039900137        3.2333886184
atom         0.2086900000        9.3533400000       11.5038000000 O         0.0000000000         0.0000000000       -20.8731166698      -16.4921198796        5.4014491003
atom         2.6821600000        8.6220600000        0.1390900000 O         0.0000000000         0.0000000000        -4.2579918271       -3.2147556956      -14.8580033264
atom         4.7684300000        4.8042000000       11.6234000000 O         0.0000000000         0.0000000000         2.2273952719       -1.7253210206       -1.2758017582
atom         5.7577800000        3.9827500000        9.8068100000 O         0.0000000000         0.0000000000        -3.5629007890        6.3178522178        1.9834146740
atom         3.4851700000        6.3566500000        7.6874700000 O         0.0000000000         0.0000000000         2.6240136372       -0.3512352068        2.7130734736
atom         5.3727100000        5.4111000000        7.0416800000 O         0.0000000000         0.0000000000         2.3649745014        3.2541892327       -1.0317750392
atom         2.0027400000        7.9821100000        9.6909000000 O         0.0000000000         0.0000000000        -5.2234908513       -2.3596013937       -0.1780274307
atom         2.4388700000        7.6085500000       11.8415000000 O         0.0000000000         0.0000000000        -8.1839809446       -1.7318702163       -4.2071663793
atom         4.2183900000       10.2937000000       12.7564000000 O         0.0000000000         0.0000000000         5.4606916482       -0.0776218046       -4.3143056854
atom         4.6393600000       11.5387000000       10.9796000000 O         0.0000000000         0.0000000000        -0.6601312474       -8.5049837729        4.6423419809
atom         1.1400000000        5.5451200000       10.3441000000 O         0.0000000000         0.0000000000        -4.1509447633       -6.5152274482        1.7327926382
atom        -0.3281800000        4.2824700000       11.4201000000 O         0.0000000000         0.0000000000         3.3975335992        0.3338936747      -11.4968362114
atom        -1.4511900000        2.8896400000        7.5621700000 O         0.0000000000         0.0000000000         8.2581667275       -6.7399063675        0.0313392847
atom        -0.3684300000        1.3920700000        6.3347800000 O         0.0000000000         0.0000000000         1.9764273279       -1.5507757327        2.5896072996
atom         2.1390200000       10.7457000000        9.3650000000 O         0.0000000000         0.0000000000         5.7704639896       -4.7166200060       -0.9935406506
atom         1.9190900000       11.3323000000       11.4975000000 O         0.0000000000         0.0000000000        -4.8831402232        2.2647533597      -11.7348671880
atom         4.0408400000        1.6897400000       12.2299000000 O         0.0000000000         0.0000000000       -15.2178862386        3.5643766640       -7.8408861112
atom         5.9108600000        1.1063000000        0.1580000000 O         0.0000000000         0.0000000000         1.6813906767        5.7469883517       -6.0214780547
atom         5.5009400000        1.1375600000        9.6674400000 O         0.0000000000         0.0000000000        -5.4735594340       -1.6414728680      -14.8815250853
atom         4.7192200000       12.4105000000        7.9865700000 O         0.0000000000         0.0000000000         6.1467660121       -5.3390011363       -0.4129221727
atom         4.3804200000        2.8015800000        7.6782500000 O         0.0000000000         0.0000000000        32.3396513212       26.9564661749      -16.8124539520
atom         3.3816800000        3.5641800000        5.8977000000 O         0.0000000000         0.0000000000       -23.5589325757      -11.2178727621       10.4469355815
atom         7.0693400000        0.9264100000        3.4731500000 O         0.0000000000         0.0000000000        -0.6859129401        2.1623414660        3.2579019810
atom         5.5081000000        1.9894700000        4.6382400000 O         0.0000000000         0.0000000000         2.4920842420       -1.3596268502       -3.7662487013
atom         4.5022700000        3.7405200000        1.5187200000 O         0.0000000000         0.0000000000         7.0855378611       -0.5945009278        2.1123692585
atom         5.5366900000        5.0516500000        0.0774900000 O         0.0000000000         0.0000000000         7.1154243313       -4.2036150549        4.0957608719
atom        -0.3480700000        8.0168800000        1.7452100000 O         0.0000000000         0.0000000000         4.4176400010        4.3135446873       -0.7897084667
atom        -1.0786700000        8.2831300000        3.8381900000 O         0.0000000000         0.0000000000         4.2910145319        2.5577145617       -8.5735197216
atom         1.0001400000        5.3145400000        6.5205500000 O         0.0000000000         0.0000000000        -4.7702127196        3.7848585636        2.1627565559
atom        -0.6484300000        6.7751700000        6.2807500000 O         0.0000000000         0.0000000000        -1.9121345201       -0.5727087099        5.3217518464
atom         3.2282500000        5.1079800000        3.5255700000 O         0.0000000000         0.0000000000        -0.1664971566        2.8818305640       -1.7151743795
atom         2.6605200000        5.9273200000        1.5416600000 O         0.0000000000         0.0000000000         8.4226806770        6.7061687857        0.5001602258
atom         1.3973400000        2.7999900000        0.2167300000 O         0.0000000000         0.0000000000        -0.0513789010       -0.5151726426       -2.5525489989
atom         0.6925500000        1.2023100000        1.5832700000 O         0.0000000000         0.0000000000         4.3902210094       -1.8944701403        0.1390089834
energy    -21736.3338050462
charge 0
end
begin
comment generated by PY
lattice         8.8038000000         0.0000000000         0.0000000000
lattice         0.0000000000        12.5725500000         0.0000000000
lattice        -3.7840000000         0.0000000000        13.0650000000
atom         2.4457300000        9.3330100000        2.9112200000 C         0.0000000000         0.0000000000        22.5195014346      -62.2058052020        8.0214963233
atom         4.6332400000       10.4524800000        3.1846200000 C         0.0000000000         0.0000000000        19.9556527672      -48.5365270046        5.7326446909
atom         3.1894900000       11.5461800000        4.8376200000 C         0.0000000000         0.0000000000        68.5148944115       25.9215549012       -0.4014841409
atom         4.1402600000       11.7156800000        2.5004800000 C         0.0000000000         0.0000000000       -46.6282205355       34.9218100637       -1.3108999123
atom         1.8265300000       10.5118800000        2.2456700000 C         0.0000000000         0.0000000000       -18.5778080840       78.1055457243       -5.3885582540
atom         1.8254900000       10.9028700000        4.6601600000 C         0.0000000000         0.0000000000       -36.5166314431        5.1601204654       -9.9482742913
atom         5.6475500000        9.3513100000        9.6035600000 C         0.0000000000         0.0000000000        59.2905137829       84.5421136432       45.3341087021
atom        -1.0916700000        7.9403200000        9.6750200000 C         0.0000000000         0.0000000000         5.2305243185       49.2298654411       18.5262446986
atom        -2.4777300000        6.9720300000       11.5301000000 C         0.0000000000         0.0000000000        71.1903791919      -62.4355574419      -11.5593302965
atom        -2.0006800000        6.8422000000        9.1069500000 C         0.0000000000         0.0000000000         1.4811789988      -48.7966038650      -23.9030651337
atom         4.8175600000        8.2531800000        9.1389500000 C         0.0000000000         0.0000000000       -63.3627759563      -50.2942480951      -40.6593666513
atom         5.1745100000        7.8762400000       11.5590000000 C         0.0000000000         0.0000000000       -47.4317422704       89.8919762976      -60.7758206198
atom         2.0140900000        3.4496500000        9.1726800000 C         0.0000000000         0.0000000000       -65.5464945503      -22.9448993638      -70.7694780696
atom        -0.0040100000        2.0093400000        9.8274800000 C         0.0000000000         0.0000000000       -18.4658030023       28.4321106422      -23.0096303221
atom         1.3153300000        0.4520000000        8.5043300000 C         0.0000000000         0.0000000000       -78.3895824941      -65.7697667762       56.4165007447
atom         0.9608900000        1.3190500000       10.7873000000 C         0.0000000000         0.0000000000         5.2622556325      -48.0841021131       54.4084804660
atom         2.9699900000        2.6938600000        9.9762100000 C         0.0000000000         0.0000000000        63.8209659848      -30.2990695487       69.7875829958
atom         2.4788400000        1.2430900000        8.0861400000 C         0.0000000000         0.0000000000        68.2094805137       56.1329251858      -55.5457805728
atom        -0.1802900000        3.2411100000        3.5882400000 C         0.0000000000         0.0000000000       -55.1568644306      -63.3682413062      -38.2570571227
atom         6.4069900000        4.4766200000        3.4755000000 C         0.0000000000         0.0000000000        15.4892166466      -67.2376859599      -32.1011360731
atom         7.6763700000        5.5867100000        1.5767800000 C         0.0000000000         0.0000000000       -54.6962530446       -7.6152386489       50.8774724149
atom         7.1221100000        5.6627200000        4.0403300000 C         0.0000000000         0.0000000000        22.7514905476       67.9211314213       13.9873292756
atom         0.4830200000        4.4340700000        4.0927500000 C         0.0000000000         0.0000000000        46.9356868221       81.3667684241       46.4625996796
atom         0.1221600000        4.7920700000        1.6185700000 C         0.0000000000         0.0000000000        45.2274536676      -43.4465567262       33.6532723781
atom         1.9892900000        8.4298300000        2.4162800000 H         0.0000000000         0.0000000000        11.4774884116        9.7665802335       20.8576199816
atom         5.7417900000       10.3251800000        3.0852400000 H         0.0000000000         0.0000000000       -12.8601066282        1.5225265614       -0.2702926832
atom         3.2681000000       12.0502800000        5.8829500000 H         0.0000000000         0.0000000000         2.8214119282      -19.9911429506      -41.0717814920
atom         4.8520900000       12.2401700000        1.7752500000 H         0.0000000000         0.0000000000       -13.3379903647       -7.2441252498       31.2763063918