begin
comment generated by PY
lattice         6.5347004000         0.0000000000         0.0000000000
lattice         0.0000000000        11.0296001000         0.0000000000
lattice         0.2302529000         0.0000000000        28.0001011000
atom         6.4788600000        2.4450300000        6.6861300000 N         0.0000000000         0.0000000000        -0.2462958467       56.3587308950      -62.2131554829
atom         1.1587500000        1.4009100000        4.8680800000 N         0.0000000000         0.0000000000       -36.1993426954       31.5482127884      -15.7212509972
atom         2.5927200000        3.0698100000        3.8136600000 N         0.0000000000         0.0000000000         0.2424646689      -56.3752832837       62.2284550572
atom         1.3781900000        4.1139200000        5.6317600000 N         0.0000000000         0.0000000000        36.1826409924      -31.5500677317       15.7121615224
atom         5.2696800000        2.7277900000        7.2550300000 N         0.0000000000         0.0000000000       -78.8112009215       35.6892190490       31.4946737302
atom         2.0738400000        0.5376300000        5.4597500000 N         0.0000000000         0.0000000000        55.4145561210      -57.2023679500       37.7441604485
atom         3.8018800000        2.7869800000        3.2447600000 N         0.0000000000         0.0000000000        78.8185751878      -35.7001374263      -31.4949237773
atom         0.4631300000        4.9771800000        5.0400200000 N         0.0000000000         0.0000000000       -55.4164878851       57.1998910106      -37.7409771471
atom         4.9027500000        2.4450300000       13.6862000000 N         0.0000000000         0.0000000000        -0.2365870105       56.3610593017      -62.2396179225
atom         6.1173400000        1.4009100000       11.8681000000 N         0.0000000000         0.0000000000       -36.2099308929       31.5590524290      -15.7190545219
atom         1.0166100000        3.0698100000       10.8137000000 N         0.0000000000         0.0000000000         0.2420726064      -56.3816464106       62.2332402745
atom         6.3367800000        4.1139200000       12.6318000000 N         0.0000000000         0.0000000000        36.1888961485      -31.5546990944       15.6975649528
atom         3.6935700000        2.7277900000       14.2551000000 N         0.0000000000         0.0000000000       -78.8038016544       35.6953992303       31.4326352513
atom         0.4977300000        0.5376300000       12.4598000000 N         0.0000000000         0.0000000000        55.4181020292      -57.2066336314       37.7291684435
atom         2.2257700000        2.7869800000       10.2448000000 N         0.0000000000         0.0000000000        78.8110701974      -35.6996512389      -31.4850330252
atom         5.4217200000        4.9771800000       12.0400000000 N         0.0000000000         0.0000000000       -55.4265262241       57.2020489341      -37.7016548924
atom         3.3266400000        2.4450300000       20.6862000000 N         0.0000000000         0.0000000000        -0.2434399054       56.3572250530      -62.2333717315
atom         4.5412200000        1.4009100000       18.8681000000 N         0.0000000000         0.0000000000       -36.1934626571       31.5480523347      -15.6943109796
atom         5.9751900000        3.0698100000       17.8137000000 N         0.0000000000         0.0000000000         0.2420158136      -56.3768575744       62.2356775734
atom         4.7606700000        4.1139200000       19.6318000000 N         0.0000000000         0.0000000000        36.1766454628      -31.5610246851       15.7357349373
atom         2.1174600000        2.7277900000       21.2551000000 N         0.0000000000         0.0000000000       -78.8078663656       35.6903302129       31.4703537685
atom         5.4563200000        0.5376300000       19.4598000000 N         0.0000000000         0.0000000000        55.4166347635      -57.2040596722       37.7279705722
atom         0.6496600000        2.7869800000       17.2448000000 N         0.0000000000         0.0000000000        78.8078130311      -35.7025627342      -31.4720756704
atom         3.8456100000        4.9771800000       19.0401000000 N         0.0000000000         0.0000000000       -55.4224808846       57.2057231062      -37.7738905096
atom         1.7505300000        2.4450300000       27.6862000000 N         0.0000000000         0.0000000000        -0.2529739780       56.3618092060      -62.2004592204
atom         2.9651100000        1.4009100000       25.8682000000 N         0.0000000000         0.0000000000       -36.1919317687       31.5473744008      -15.7581239377
atom         4.3990800000        3.0698100000       24.8137000000 N         0.0000000000         0.0000000000         0.2401089073      -56.3752980665       62.2359696027
atom         3.1845600000        4.1139200000       26.6318000000 N         0.0000000000         0.0000000000        36.1771106241      -31.5485868419       15.7363266108
atom         0.3110900000        2.7277900000        0.2550000000 N         0.0000000000         0.0000000000       -78.8174403491       35.6855313715       31.5045285549
atom         3.8802000000        0.5376300000       26.4598000000 N         0.0000000000         0.0000000000        55.4037173320      -57.1988922878       37.7563990246
atom         5.6082500000        2.7869800000       24.2448000000 N         0.0000000000         0.0000000000        78.8119635040      -35.7019478572      -31.4708995824
atom         2.2694900000        4.9771800000       26.0401000000 N         0.0000000000         0.0000000000       -55.4018678991       57.2005073777      -37.7285646360
atom         3.9995500000        8.5846100000        3.1863700000 N         0.0000000000         0.0000000000        -0.2437315421      -56.3745397172      -62.2318518641
atom         5.2140700000        9.6287200000        1.3682600000 N         0.0000000000         0.0000000000       -36.1815140058      -31.5461579637      -15.7085196589
atom         0.1134000000        7.9598300000        0.3139000000 N         0.0000000000         0.0000000000         0.2475662062       56.3607449205       62.2122035199
atom         5.4335200000        6.9157100000        2.1319500000 N         0.0000000000         0.0000000000        36.1960523691       31.5471077980       15.7162783153
atom         2.7903800000        8.3017800000        3.7552600000 N         0.0000000000         0.0000000000       -78.8133074020      -35.7009644129       31.5015190940
atom         6.1291300000       10.4920000000        1.9600000000 N         0.0000000000         0.0000000000        55.4207009648       57.1843087735       37.7460222038
atom         1.5528300000        8.2425900000       27.7451000000 N         0.0000000000         0.0000000000        78.8128285467       35.6875636800      -31.4968696855
atom         4.5184200000        6.0524300000        1.5402700000 N         0.0000000000         0.0000000000       -55.4090075640      -57.2002564791      -37.7340584383
atom         2.4234300000        8.5846100000       10.1864000000 N         0.0000000000         0.0000000000        -0.2379129851      -56.3739409944      -62.2353723701
atom         3.6379600000        9.6287200000        8.3682900000 N         0.0000000000         0.0000000000       -36.1811506661      -31.5436982429      -15.7056933109
atom         5.0719900000        7.9598300000        7.3139200000 N         0.0000000000         0.0000000000         0.2459859933       56.3609009281       62.2152236002
atom         3.8574000000        6.9157100000        9.1319700000 N         0.0000000000         0.0000000000        36.2011789299       31.5515037534       15.7230893605
atom         1.2142700000        8.3017800000       10.7553000000 N         0.0000000000         0.0000000000       -78.8148827327      -35.7006325545       31.4713823638
atom         4.5530200000       10.4920000000        8.9600300000 N         0.0000000000         0.0000000000        55.4233802459       57.1851748563       37.7596997332
atom         6.2811700000        8.2425900000        6.7450200000 N         0.0000000000         0.0000000000        78.8134912478       35.6886811115      -31.4936974293
atom         2.9423100000        6.0524300000        8.5403000000 N         0.0000000000         0.0000000000       -55.4115763199      -57.2028457410      -37.7450648003
atom         0.8473200000        8.5846100000       17.1864000000 N         0.0000000000         0.0000000000        -0.2430974834      -56.3780112404      -62.2362222044
atom         2.0618500000        9.6287200000       15.3683000000 N         0.0000000000         0.0000000000       -36.1940334474      -31.5549154615      -15.6997890777
atom         3.4958800000        7.9598300000       14.3139000000 N         0.0000000000         0.0000000000         0.2363168640       56.3587127549       62.2393569244
atom         2.2812900000        6.9157100000       16.1320000000 N         0.0000000000         0.0000000000        36.2086780784       31.5568312843       15.7188540961
atom         6.1728600000        8.3017800000       17.7553000000 N         0.0000000000         0.0000000000       -78.8133508500      -35.7016808044       31.4715840668
atom         2.9769100000       10.4920000000       15.9601000000 N         0.0000000000         0.0000000000        55.4204442000       57.1868354530       37.7014758242
atom         4.7050600000        8.2425900000       13.7450000000 N         0.0000000000         0.0000000000        78.8029333242       35.6949072010      -31.4320817981
atom         1.3662000000        6.0524300000       15.5403000000 N         0.0000000000         0.0000000000       -55.4142942714      -57.2038881489      -37.7333453829
atom         5.8059100000        8.5846100000       24.1864000000 N         0.0000000000         0.0000000000        -0.2501400188      -56.3732352224      -62.1998917661
atom         0.4857400000        9.6287200000       22.3683000000 N         0.0000000000         0.0000000000       -36.1806234423      -31.5420007031      -15.6725491543
atom         1.9197700000        7.9598300000       21.3140000000 N         0.0000000000         0.0000000000         0.2534828002       56.3566040027       62.2016967322
atom         0.7051800000        6.9157100000       23.1320000000 N         0.0000000000         0.0000000000        36.2087199663       31.5397427553       15.7213432151
atom         4.5967400000        8.3017800000       24.7553000000 N         0.0000000000         0.0000000000       -78.8203599094      -35.6958608640       31.5497020153
atom         1.4008000000       10.4920000000       22.9601000000 N         0.0000000000         0.0000000000        55.4155476060       57.1813851930       37.6984391639
atom         3.1289500000        8.2425900000       20.7451000000 N         0.0000000000         0.0000000000        78.8107372746       35.6886971472      -31.5116144108
atom         6.3247900000        6.0524300000       22.5403000000 N         0.0000000000         0.0000000000       -55.4073008219      -57.1915196059      -37.6864791359
atom         6.4137500000        1.5342300000        5.5156100000 C         0.0000000000         0.0000000000        82.7468498220       42.6766681698       22.7713647094
atom         1.5400100000        2.0332700000        3.6212400000 C         0.0000000000         0.0000000000        37.6558498099       19.5984495322       99.8381221225
atom         2.6579000000        3.9805300000        4.9842300000 C         0.0000000000         0.0000000000       -82.7548971017      -42.6719004782      -22.7765551543
atom         0.9968400000        3.4816100000        6.8786000000 C         0.0000000000         0.0000000000       -37.6447913664      -19.6064739974      -99.8464635604
atom         4.8376400000        1.5342300000       12.5156000000 C         0.0000000000         0.0000000000        82.7510271872       42.6599117363       22.7880057914
atom         6.4986000000        2.0332700000       10.6213000000 C         0.0000000000         0.0000000000        37.6530506614       19.5896830848       99.8080301419
atom         1.0817900000        3.9805300000       11.9843000000 C         0.0000000000         0.0000000000       -82.7600388710      -42.6641135579      -22.7967898744
atom         5.9554200000        3.4816100000       13.8786000000 C         0.0000000000         0.0000000000       -37.6493039017      -19.5988192390      -99.8015410928
atom         3.2615200000        1.5342300000       19.5157000000 C         0.0000000000         0.0000000000        82.7364325091       42.6863542385       22.7367595547
atom         4.9224800000        2.0332700000       17.6213000000 C         0.0000000000         0.0000000000        37.6558233434       19.5899534965       99.8048018780
atom         6.0403700000        3.9805300000       18.9843000000 C         0.0000000000         0.0000000000       -82.7537777787      -42.6621833782      -22.7973112319
atom         4.3793100000        3.4816100000       20.8786000000 C         0.0000000000         0.0000000000       -37.6380122039      -19.6007615946      -99.7994826492
atom         1.6854100000        1.5342300000       26.5157000000 C         0.0000000000         0.0000000000        82.7575839277       42.6766749818       22.7852098604
atom         3.3463700000        2.0332700000       24.6213000000 C         0.0000000000         0.0000000000        37.6645407749       19.6120201376       99.8509185736
atom         4.4642600000        3.9805300000       25.9843000000 C         0.0000000000         0.0000000000       -82.7569558768      -42.6646798536      -22.7753160338
atom         2.8032000000        3.4816100000       27.8787000000 C         0.0000000000         0.0000000000       -37.6476270809      -19.6198621147      -99.8684257871
atom         3.9343700000        9.4953300000        2.0157900000 C         0.0000000000         0.0000000000        82.7526560896      -42.6666978295       22.7774267718
atom         5.5954300000        8.9964100000        0.1214300000 C         0.0000000000         0.0000000000        37.6423689444      -19.6069176634       99.8528452774
atom         0.1785200000        7.0490300000        1.4844100000 C         0.0000000000         0.0000000000       -82.7474168748       42.6797606248      -22.7683523869
atom         5.0522600000        7.5480700000        3.3787900000 C         0.0000000000         0.0000000000       -37.6599224919       19.5978920867      -99.8382369995
atom         2.3582500000        9.4953300000        9.0158200000 C         0.0000000000         0.0000000000        82.7530526836      -42.6677420347       22.7778129592
atom         4.0193200000        8.9964100000        7.1214600000 C         0.0000000000         0.0000000000        37.6401270809      -19.6070029662       99.8388473119
atom         5.1371000000        7.0490300000        8.4844400000 C         0.0000000000         0.0000000000       -82.7469345192       42.6780979237      -22.7703884085
atom         3.4761400000        7.5480700000       10.3788000000 C         0.0000000000         0.0000000000       -37.6538215461       19.5961867037      -99.8040418257
atom         0.7821400000        9.4953300000       16.0158000000 C         0.0000000000         0.0000000000        82.7555590699      -42.6607247218       22.7964366341
atom         2.4432000000        8.9964100000       14.1215000000 C         0.0000000000         0.0000000000        37.6536367302      -19.5947448209       99.8028318449
atom         3.5609900000        7.0490300000       15.4845000000 C         0.0000000000         0.0000000000       -82.7511963688       42.6616029142      -22.7876984593
atom         1.9000300000        7.5480700000       17.3788000000 C         0.0000000000         0.0000000000       -37.6555015601       19.5897138560      -99.8032124032
atom         5.7407300000        9.4953300000       23.0159000000 C         0.0000000000         0.0000000000        82.7466814675      -42.6894866656       22.7487853826
atom         0.8670900000        8.9964100000       21.1215000000 C         0.0000000000         0.0000000000        37.6412254721      -19.5998437654       99.8770212467
atom         1.9848800000        7.0490300000       22.4845000000 C         0.0000000000         0.0000000000       -82.7548002949       42.6802573374      -22.7826352625
atom         0.3239200000        7.5480700000       24.3789000000 C         0.0000000000         0.0000000000       -37.6638528845       19.6070103837      -99.8809418227
atom         4.2679400000        2.1429500000        6.7833000000 O         0.0000000000         0.0000000000       235.3539408916      132.7271406287      105.3569737477
atom         5.2567900000        3.5467800000        8.1903200000 O         0.0000000000         0.0000000000         0.7724266606     -195.3520212034     -221.1207839176
atom         1.8040000000        0.1517800000        6.6039700000 O         0.0000000000         0.0000000000        62.8096597922       94.3145542062     -278.4914573798
atom         3.0710300000        0.2488400000        4.7769500000 O         0.0000000000         0.0000000000      -237.1808482547       74.6309155763      160.6189585611
atom         4.8036700000        3.3717200000        3.7165300000 O         0.0000000000         0.0000000000      -235.3690036870     -132.7052139492     -105.3682546132
atom         3.8147200000        1.9680200000        2.3094300000 O         0.0000000000         0.0000000000        -0.7616664145      195.3480609383      221.1347754026
atom         0.7330100000        5.3629900000        3.8958000000 O         0.0000000000         0.0000000000       -62.8162390733      -94.3055617512      278.4919353836
atom         6.0006100000        5.2660000000        5.7227800000 O         0.0000000000         0.0000000000       237.1861144561      -74.6368541524     -160.6094637644
atom         2.6918300000        2.1429500000       13.7833000000 O         0.0000000000         0.0000000000       235.3482007067      132.7253187268      105.3816297311
atom         3.6806800000        3.5467800000       15.1903000000 O         0.0000000000         0.0000000000         0.7638916893     -195.3475164745     -221.0829251212
atom         0.2278900000        0.1517800000       13.6040000000 O         0.0000000000         0.0000000000        62.8063116609       94.3157492158     -278.4840403983
atom         1.4949100000        0.2488400000       11.7770000000 O         0.0000000000         0.0000000000      -237.1753703695       74.6308787031      160.6190697250
atom         3.2275500000        3.3717200000       10.7166000000 O         0.0000000000         0.0000000000      -235.3640728686     -132.7070650608     -105.3820637426
atom         2.2386100000        1.9680200000        9.3094600000 O         0.0000000000         0.0000000000        -0.7584995745      195.3513082180      221.1388465944
atom         5.6915900000        5.3629900000       10.8958000000 O         0.0000000000         0.0000000000       -62.8134276023      -94.3091701476      278.4916441115
atom         4.4245000000        5.2660000000       12.7228000000 O         0.0000000000         0.0000000000       237.1854413241      -74.6354134475     -160.6290400409
atom         1.1157200000        2.1429500000       20.7833000000 O         0.0000000000         0.0000000000       235.3552488380      132.7336498523      105.3864095322
atom         2.1045700000        3.5467800000       22.1904000000 O         0.0000000000         0.0000000000         0.7673629474     -195.3594885635     -221.1297900667
atom         5.1864800000        0.1517800000       20.6040000000 O         0.0000000000         0.0000000000        62.8073797782       94.3160953369     -278.4818727068
atom         6.4535000000        0.2488400000       18.7770000000 O         0.0000000000         0.0000000000      -237.1735255257       74.6298638261      160.6183317874
atom         1.6514400000        3.3717200000       17.7166000000 O         0.0000000000         0.0000000000      -235.3615823294     -132.7047212813     -105.3786507814
atom         0.6625000000        1.9680200000       16.3095000000 O         0.0000000000         0.0000000000        -0.7573041252      195.3476250352      221.1223144288
atom         4.1154800000        5.3629900000       17.8959000000 O         0.0000000000         0.0000000000       -62.8064249535      -94.3014625084      278.4726150205
atom         2.8483900000        5.2660000000       19.7228000000 O         0.0000000000         0.0000000000       237.1832741070      -74.6410485234     -160.5780218309
atom         6.0743000000        2.1429500000       27.7834000000 O         0.0000000000         0.0000000000       235.3612406787      132.7273503024      105.3483008529
atom         0.2982000000        3.5467800000        1.1903000000 O         0.0000000000         0.0000000000         0.7749298346     -195.3491427739     -221.1221193006
atom         3.6103600000        0.1517800000       27.6040000000 O         0.0000000000         0.0000000000        62.8125287610       94.3063120355     -278.4736652805
atom         4.8773900000        0.2488400000       25.7770000000 O         0.0000000000         0.0000000000      -237.1805254071       74.6328140861      160.6141242425
atom         6.6100300000        3.3717200000       24.7166000000 O         0.0000000000         0.0000000000      -235.3650036870     -132.7052432775     -105.3792587521
atom         5.6210900000        1.9680200000       23.3095000000 O         0.0000000000         0.0000000000        -0.7588312113      195.3466795527      221.1225219737
atom         2.5393700000        5.3629900000       24.8959000000 O         0.0000000000         0.0000000000       -62.8233587278      -94.3001090553      278.4806295660
atom         1.2722800000        5.2660100000       26.7229000000 O         0.0000000000         0.0000000000       237.1852966932      -74.6401507464     -160.6246837261
atom         1.7886000000        8.8865200000        3.2835000000 O         0.0000000000         0.0000000000       235.3657878642     -132.7036416931      105.3648437809
atom         2.7775400000        7.4828200000        4.6905900000 O         0.0000000000         0.0000000000         0.7613174458      195.3466311843     -221.1334378908
atom         5.8592600000       10.8778000000        3.1042200000 O         0.0000000000         0.0000000000        62.8126873231      -94.3015563350     -278.4917844849
atom         0.5916500000       10.7808000000        1.2772500000 O         0.0000000000         0.0000000000      -237.1837602701      -74.6291965604      160.6040697250
atom         2.3243200000        7.6577500000        0.2167300000 O         0.0000000000         0.0000000000      -235.3558695812      132.7280923788     -105.3572881990
atom         1.5657200000        9.0615800000       26.8098000000 O         0.0000000000         0.0000000000        -0.7731952036     -195.3520484029      221.1251632930
atom         4.7882600000        5.6665800000        0.3960500000 O         0.0000000000         0.0000000000       -62.8096059133       94.3146001145      278.4885202937
atom         3.5212400000        5.7636400000        2.2230800000 O         0.0000000000         0.0000000000       237.1747518736       74.6294631875     -160.6220277428
atom         0.2124900000        8.8865200000       10.2835000000 O         0.0000000000         0.0000000000       235.3654418374     -132.7063355197      105.3802419593
atom         1.2014300000        7.4828200000       11.6906000000 O         0.0000000000         0.0000000000         0.7577977912      195.3470946426     -221.1222221866
atom         4.2831500000       10.8778000000       10.1043000000 O         0.0000000000         0.0000000000        62.8162701988      -94.3066724649     -278.5216244783
atom         5.5502400000       10.7808000000        8.2772700000 O         0.0000000000         0.0000000000      -237.1903974504      -74.6290806190      160.6147069053
atom         0.7482100000        7.6577500000        7.2167500000 O         0.0000000000         0.0000000000      -235.3566389757      132.7286856854     -105.3581728962
atom         6.2940600000        9.0615800000        5.8097300000 O         0.0000000000         0.0000000000        -0.7728317504     -195.3520903851      221.1215449157
atom         3.2121500000        5.6665800000        7.3960800000 O         0.0000000000         0.0000000000       -62.8094369445       94.3156611126      278.4921953173
atom         1.9451300000        5.7636400000        9.2231000000 O         0.0000000000         0.0000000000       237.1745632503       74.6295795546     -160.6177238167
atom         5.1710700000        8.8865200000       17.2835000000 O         0.0000000000         0.0000000000       235.3667834881     -132.7042034240      105.3793174086
atom         6.1600200000        7.4828200000       18.6906000000 O         0.0000000000         0.0000000000         0.7571973986      195.3476480958     -221.1207232510
atom         2.7070300000       10.8778000000       17.1043000000 O         0.0000000000         0.0000000000        62.8180030516      -94.3045720635     -278.4924742912
atom         3.9741200000       10.7808000000       15.2773000000 O         0.0000000000         0.0000000000      -237.1806657805      -74.6265648905      160.6301596012
atom         5.7068000000        7.6577500000       14.2168000000 O         0.0000000000         0.0000000000      -235.3480854040      132.7254109690     -105.3821831842
atom         4.7179500000        9.0615800000       12.8098000000 O         0.0000000000         0.0000000000        -0.7639922948     -195.3470552636      221.0822333048
atom         1.6360400000        5.6665800000       14.3961000000 O         0.0000000000         0.0000000000       -62.8065114481       94.3163026690      278.4853087285
atom         0.3690100000        5.7636400000       16.2231000000 O         0.0000000000         0.0000000000       237.1731921528       74.6292707324     -160.6161535707
atom         3.5949600000        8.8865200000       24.2836000000 O         0.0000000000         0.0000000000       235.3705343168     -132.7041323508      105.3441395477
atom         4.5839000000        7.4828200000       25.6907000000 O         0.0000000000         0.0000000000         0.7690226631      195.3505196647     -221.1651605712
atom         1.1309200000       10.8778000000       24.1043000000 O         0.0000000000         0.0000000000        62.8193093193      -94.3040343388     -278.4906839649
atom         2.3980100000       10.7808000000       22.2773000000 O         0.0000000000         0.0000000000      -237.1802506907      -74.6261961346      160.6300128415
atom         4.1306900000        7.6577500000       21.2168000000 O         0.0000000000         0.0000000000      -235.3538780962      132.7254530698     -105.3444811984
atom         3.1418400000        9.0615800000       19.8098000000 O         0.0000000000         0.0000000000        -0.7748284107     -195.3497423481      221.1248719023
atom         6.5946300000        5.6665900000       21.3961000000 O         0.0000000000         0.0000000000       -62.8199852887       94.3118280712      278.4932184964
atom         5.3276000000        5.7636400000       23.2232000000 O         0.0000000000         0.0000000000       237.1827471417       74.6259108930     -160.6641969701
atom         6.0555700000        0.5534600000        5.8567000000 H         0.0000000000         0.0000000000        49.3277552363      120.6364097109      -37.1132132344
atom         5.7042200000        1.9645100000        4.8007900000 H         0.0000000000         0.0000000000        88.4536633318      -47.3242877153       80.0770646456
atom         0.6582000000        2.5244900000        3.2015000000 H         0.0000000000         0.0000000000        99.9108672966      -58.2141994100       55.3753314236
atom         1.9458600000        1.2888300000        2.9315000000 H         0.0000000000         0.0000000000       -42.9919058944       94.9310697752       84.6907142249
atom         3.0161500000        4.9612900000        4.6431900000 H         0.0000000000         0.0000000000       -49.3345485428     -120.6327116268       37.1063744453
atom         3.3673800000        3.5501400000        5.6990300000 H         0.0000000000         0.0000000000       -88.4462488806       47.3381334106      -80.0724516845
atom         1.8786100000        2.9904200000        7.2984500000 H         0.0000000000         0.0000000000       -99.9103808963       58.2145041876      -55.3876693612
atom         0.5908800000        4.2260800000        7.5682400000 H         0.0000000000         0.0000000000        43.0072580703      -94.9359238670      -84.6777161408
atom         4.4794600000        0.5534600000       12.8567000000 H         0.0000000000         0.0000000000        49.3277472656      120.6377996114      -37.1151585040
atom         4.1281100000        1.9645100000       11.8008000000 H         0.0000000000         0.0000000000        88.4533120074      -47.3207691251       80.0744053505
atom         5.6167900000        2.5244900000       10.2015000000 H         0.0000000000         0.0000000000        99.9155422015      -58.2168169358       55.3891073930
atom         0.3697500000        1.2888300000        9.9315200000 H         0.0000000000         0.0000000000       -42.9924639122       94.9341847465       84.7008274932
atom         1.4400400000        4.9612900000       11.6432000000 H         0.0000000000         0.0000000000       -49.3348845645     -120.6344809027       37.1199361763
atom         1.7912600000        3.5501400000       12.6991000000 H         0.0000000000         0.0000000000       -88.4425134976       47.3373728383      -80.0724908993