begin
comment generated by PY
lattice         6.5347004000         0.0000000000         0.0000000000
lattice         0.0000000000        11.0296001000         0.0000000000
lattice         0.2302529000         0.0000000000        28.0001011000
atom         6.4113000000        2.4850800000        6.5947200000 N         0.0000000000         0.0000000000         0.5755446896       33.1166445308      -39.9846422263
atom         1.1642600000        1.3588600000        4.8732000000 N         0.0000000000         0.0000000000       -15.4314096588       59.9840189788        4.8387025701
atom         2.6601000000        3.0297500000        3.9055000000 N         0.0000000000         0.0000000000        -0.5733039707      -33.1186869630       40.0136069133
atom         1.3724700000        4.1559200000        5.6270400000 N         0.0000000000         0.0000000000        15.4226795976      -59.9723228106       -4.8117266007
atom         5.1872800000        2.6332000000        7.2186700000 N         0.0000000000         0.0000000000       -81.6224284799       19.4822963798       33.2697724878
atom         2.1287700000        0.6743500000        5.6279000000 N         0.0000000000         0.0000000000        52.5495964556      -66.5352128746       40.6962844405
atom         3.8841300000        2.8816000000        3.2815900000 N         0.0000000000         0.0000000000        81.6158575010      -19.4938744779      -33.2628810972
atom         0.4079600000        4.8404200000        4.8723000000 N         0.0000000000         0.0000000000       -52.5206922467       66.5340557083      -40.7053358592
atom         4.8351800000        2.4850800000       13.5947000000 N         0.0000000000         0.0000000000         0.5785182090       33.1214774536      -39.9551033673
atom         6.1228500000        1.3588600000       11.8732000000 N         0.0000000000         0.0000000000       -15.4296907371       59.9866896506        4.8440732035
atom         1.0839900000        3.0297500000       10.9055000000 N         0.0000000000         0.0000000000        -0.5756189942      -33.1082390446       40.0249638667
atom         6.3310600000        4.1559200000       12.6271000000 N         0.0000000000         0.0000000000        15.4193903114      -59.9685198546       -4.8523561875
atom         3.6111700000        2.6332000000       14.2187000000 N         0.0000000000         0.0000000000       -81.6280199892       19.4757164601       33.2741221092
atom         0.5526600000        0.6743500000       12.6279000000 N         0.0000000000         0.0000000000        52.5383517303      -66.5334781302       40.6964777471
atom         2.3080200000        2.8816000000       10.2816000000 N         0.0000000000         0.0000000000        81.6077037164      -19.4965295398      -33.2406880278
atom         5.3665400000        4.8404200000       11.8723000000 N         0.0000000000         0.0000000000       -52.5212907566       66.5354245828      -40.6704726867
atom         3.2590800000        2.4850800000       20.5948000000 N         0.0000000000         0.0000000000         0.5709798789       33.1170649668      -40.0201031758
atom         4.5467400000        1.3588600000       18.8733000000 N         0.0000000000         0.0000000000       -15.4234453976       59.9802252222        4.7891980644
atom         6.0425800000        3.0297500000       17.9055000000 N         0.0000000000         0.0000000000        -0.5796273715      -33.1258484112       40.0301268506
atom         4.7549400000        4.1559200000       19.6271000000 N         0.0000000000         0.0000000000        15.4214999851      -59.9746840215       -4.8035090035
atom         2.0350500000        2.6332000000       21.2187000000 N         0.0000000000         0.0000000000       -81.6189057508       19.4861439667       33.3007656515
atom         5.5112500000        0.6743600000       19.6279000000 N         0.0000000000         0.0000000000        52.5217278426      -66.5343906412       40.7507894036
atom         0.7319100000        2.8816000000       17.2816000000 N         0.0000000000         0.0000000000        81.6077062709      -19.4995259452      -33.2236573523
atom         3.7904400000        4.8404200000       18.8724000000 N         0.0000000000         0.0000000000       -52.5294400951       66.5426272072      -40.7753616598
atom         1.6829600000        2.4850800000       27.5948000000 N         0.0000000000         0.0000000000         0.5763525277       33.1181353771      -39.9724134425
atom         2.9706200000        1.3588600000       25.8733000000 N         0.0000000000         0.0000000000       -15.4217740629       59.9854672287        4.8380369550
atom         4.4664700000        3.0297500000       24.9056000000 N         0.0000000000         0.0000000000        -0.5727733652      -33.1197506099       40.0176480439
atom         3.1788300000        4.1559200000       26.6271000000 N         0.0000000000         0.0000000000        15.4224312535      -59.9618873089       -4.7987987067
atom         0.2286900000        2.6332000000        0.2186500000 N         0.0000000000         0.0000000000       -81.6193909681       19.4817530261       33.2626161730
atom         3.9351400000        0.6743500000       26.6280000000 N         0.0000000000         0.0000000000        52.5411886035      -66.5389915171       40.6925486318
atom         5.6905000000        2.8816000000       24.2817000000 N         0.0000000000         0.0000000000        81.6139770613      -19.4928536161      -33.2987686074
atom         2.2143200000        4.8404200000       25.8724000000 N         0.0000000000         0.0000000000       -52.5141755724       66.5300377324      -40.7297481087
atom         3.9321600000        8.5445500000        3.0945300000 N         0.0000000000         0.0000000000         0.5720317285      -33.1161125781      -40.0177110522
atom         5.2198000000        9.6707200000        1.3729900000 N         0.0000000000         0.0000000000       -15.4234820336      -59.9746636098        4.8090261941
atom         0.1809700000        7.9998800000        0.4053100000 N         0.0000000000         0.0000000000        -0.5708643772       33.1146309310       39.9901985412
atom         5.4280100000        6.8736600000        2.1268200000 N         0.0000000000         0.0000000000        15.4253936231       59.9834478813       -4.8308808722
atom         2.7081300000        8.3964000000        3.7184300000 N         0.0000000000         0.0000000000       -81.6113885322      -19.4948784039       33.2700046777
atom         6.1843000000       10.3552000000        2.1277300000 N         0.0000000000         0.0000000000        52.5230398336       66.5483161620       40.7019909211
atom         1.6352400000        8.1480000000       27.7815000000 N         0.0000000000         0.0000000000        81.6195891709       19.4822148513      -33.3009257981
atom         4.4634900000        6.1891500000        1.3721300000 N         0.0000000000         0.0000000000       -52.5373764939      -66.5352617631      -40.6965332104
atom         2.3560500000        8.5445500000       10.0946000000 N         0.0000000000         0.0000000000         0.5755499592      -33.1161494755      -40.0282707487
atom         3.6436900000        9.6707200000        8.3730100000 N         0.0000000000         0.0000000000       -15.4277232585      -59.9702894377        4.8124677785
atom         5.1395500000        7.9998800000        7.4053400000 N         0.0000000000         0.0000000000        -0.5712973104       33.1159568532       39.9768029173
atom         3.8518900000        6.8736600000        9.1268400000 N         0.0000000000         0.0000000000        15.4287684338       59.9809593523       -4.8314888289
atom         1.1320200000        8.3964000000       10.7185000000 N         0.0000000000         0.0000000000       -81.6084823588      -19.4980190389       33.2241258954
atom         4.6081900000       10.3552000000        9.1277500000 N         0.0000000000         0.0000000000        52.5241423881       66.5485827892       40.7074012091
atom         6.3635800000        8.1480000000        6.7813800000 N         0.0000000000         0.0000000000        81.6141688777       19.4821284754      -33.2640402980
atom         2.8873800000        6.1891600000        8.3721500000 N         0.0000000000         0.0000000000       -52.5444130356      -66.5425109587      -40.6960055852
atom         0.7799300000        8.5445500000       17.0946000000 N         0.0000000000         0.0000000000         0.5809681236      -33.1032877202      -40.0262921306
atom         2.0675700000        9.6707200000       15.3730000000 N         0.0000000000         0.0000000000       -15.4181970048      -59.9713869075        4.8510154686
atom         3.5634400000        7.9998800000       14.4054000000 N         0.0000000000         0.0000000000        -0.5740104372       33.1200858500       39.9554197345
atom         2.2757800000        6.8736600000       16.1269000000 N         0.0000000000         0.0000000000        15.4270626862       59.9872745607       -4.8414389652
atom         6.0906100000        8.3964000000       17.7185000000 N         0.0000000000         0.0000000000       -81.6124632243      -19.4976181874       33.2259992159
atom         3.0320800000       10.3552000000       16.1278000000 N         0.0000000000         0.0000000000        52.5301468342       66.5498068198       40.6680313675
atom         4.7874600000        8.1480000000       13.7814000000 N         0.0000000000         0.0000000000        81.6271762097       19.4773923351      -33.2755837459
atom         1.3112600000        6.1891500000       15.3722000000 N         0.0000000000         0.0000000000       -52.5347109311      -66.5316815362      -40.6929462901
atom         5.7385200000        8.5445500000       24.0946000000 N         0.0000000000         0.0000000000         0.5745710567      -33.1139412677      -40.0161247705
atom         0.4914600000        9.6707200000       22.3731000000 N         0.0000000000         0.0000000000       -15.4197036283      -59.9752762394        4.7808446252
atom         1.9873300000        7.9998800000       21.4054000000 N         0.0000000000         0.0000000000        -0.5753571306       33.1251591706       39.9561106994
atom         0.6996700000        6.8736600000       23.1269000000 N         0.0000000000         0.0000000000        15.4233262388       59.9873885862       -4.8417306682
atom         4.5145000000        8.3964000000       24.7185000000 N         0.0000000000         0.0000000000       -81.6202570752      -19.4911932566       33.2978602110
atom         1.4559700000       10.3552000000       23.1278000000 N         0.0000000000         0.0000000000        52.5124649043       66.5455803532       40.6918740583
atom         3.2113500000        8.1480000000       20.7814000000 N         0.0000000000         0.0000000000        81.6220539764       19.4804874633      -33.2381278812
atom         6.2698500000        6.1891500000       22.3722000000 N         0.0000000000         0.0000000000       -52.5396663945      -66.5314800461      -40.6901203679
atom         6.4166700000        1.5129500000        5.4848900000 C         0.0000000000         0.0000000000        72.7679521452       46.4118896293       16.4768153016
atom         1.6425800000        1.9831200000        3.6653800000 C         0.0000000000         0.0000000000        26.0815101071       14.7423390690       83.2007155817
atom         2.6547900000        4.0018300000        5.0154200000 C         0.0000000000         0.0000000000       -72.7866528781      -46.4159270225      -16.4865258025
atom         0.8941000000        3.5317500000        6.8348800000 C         0.0000000000         0.0000000000       -26.0605596342      -14.7542148254      -83.2158980316
atom         4.8405600000        1.5129500000       12.4849000000 C         0.0000000000         0.0000000000        72.7625321592       46.4153205662       16.4832338918
atom         6.6011700000        1.9831200000       10.6654000000 C         0.0000000000         0.0000000000        26.0775995819       14.7396226355       83.2115626486
atom         1.0786800000        4.0018300000       12.0154000000 C         0.0000000000         0.0000000000       -72.7748608488      -46.4321401721      -16.4318329946
atom         5.8526800000        3.5317500000       13.8349000000 C         0.0000000000         0.0000000000       -26.0523859821      -14.7480537610      -83.2263555294
atom         3.2644400000        1.5129500000       19.4849000000 C         0.0000000000         0.0000000000        72.7870929444       46.3923296956       16.5178343632
atom         5.0250600000        1.9831200000       17.6654000000 C         0.0000000000         0.0000000000        26.0906034136       14.7565968931       83.2137073495
atom         6.0372800000        4.0018400000       19.0155000000 C         0.0000000000         0.0000000000       -72.8034985491      -46.4084801441      -16.5116402051
atom         4.2765700000        3.5317500000       20.8349000000 C         0.0000000000         0.0000000000       -26.0585297859      -14.7511481128      -83.1708531422
atom         1.6883300000        1.5129500000       26.4850000000 C         0.0000000000         0.0000000000        72.7666285646       46.4194786783       16.4580003547
atom         3.4489500000        1.9831200000       24.6655000000 C         0.0000000000         0.0000000000        26.0706712237       14.7385743908       83.1651856635
atom         4.4611600000        4.0018300000       26.0155000000 C         0.0000000000         0.0000000000       -72.7926525466      -46.4156141799      -16.5070987916
atom         2.7004600000        3.5317500000       27.8350000000 C         0.0000000000         0.0000000000       -26.0667063939      -14.7637500287      -83.2488297471
atom         3.9374700000        9.5166300000        1.9846100000 C         0.0000000000         0.0000000000        72.7849110145      -46.4036979314       16.4864695820
atom         5.6981700000        9.0465500000        0.1651400000 C         0.0000000000         0.0000000000        26.0597213895      -14.7563852792       83.2238425440
atom         0.1756000000        7.0277500000        1.5151400000 C         0.0000000000         0.0000000000       -72.7731026181       46.4137277797      -16.4770450556
atom         4.9496800000        7.4979200000        3.3346500000 C         0.0000000000         0.0000000000       -26.0763615500       14.7446881843      -83.2034395881
atom         2.3613500000        9.5166400000        8.9846300000 C         0.0000000000         0.0000000000        72.7945014351      -46.4041409537       16.4935559579
atom         4.1220500000        9.0465500000        7.1651600000 C         0.0000000000         0.0000000000        26.0711819375      -14.7547172805       83.2266580596
atom         5.1341900000        7.0277500000        8.5151600000 C         0.0000000000         0.0000000000       -72.7775597844       46.4161040805      -16.4805228465
atom         3.3735700000        7.4979200000       10.3347000000 C         0.0000000000         0.0000000000       -26.0863318903       14.7497123755      -83.2166441284
atom         0.7852500000        9.5166300000       15.9847000000 C         0.0000000000         0.0000000000        72.7691926372      -46.4179366961       16.4362632686
atom         2.5459400000        9.0465500000       14.1652000000 C         0.0000000000         0.0000000000        26.0592339005      -14.7482464621       83.2250190820
atom         3.5580700000        7.0277500000       15.5152000000 C         0.0000000000         0.0000000000       -72.7685673293       46.4176102539      -16.4825039249
atom         1.7974600000        7.4979200000       17.3347000000 C         0.0000000000         0.0000000000       -26.0779907597       14.7371734870      -83.2122701935
atom         5.7438400000        9.5166300000       22.9847000000 C         0.0000000000         0.0000000000        72.7868377882      -46.4038599939       16.4849362091
atom         0.9698300000        9.0465500000       21.1652000000 C         0.0000000000         0.0000000000        26.0637667533      -14.7626183309       83.2291773827
atom         1.9819600000        7.0277500000       22.5152000000 C         0.0000000000         0.0000000000       -72.7629856367       46.4222144871      -16.4575766555
atom         0.2213400000        7.4979200000       24.3347000000 C         0.0000000000         0.0000000000       -26.0704491333       14.7415273939      -83.1891874365
atom         4.2396600000        1.9576500000        6.7621300000 O         0.0000000000         0.0000000000       227.6828168454      155.2026769015      100.0972395141
atom         5.1079100000        3.4182400000        8.1789600000 O         0.0000000000         0.0000000000        23.2457804427     -183.0136340563     -227.9833896574
atom         1.8344800000        0.4233200000        6.8023100000 O         0.0000000000         0.0000000000        67.9095870181       62.4322802894     -287.8657029691
atom         3.1552300000        0.3448000000        5.0155000000 O         0.0000000000         0.0000000000      -246.5724403393       86.8594653862      144.3006406782
atom         4.8317300000        3.5571600000        3.7381300000 O         0.0000000000         0.0000000000      -227.6751712687     -155.2054484248     -100.0980108245
atom         3.9635100000        2.0965200000        2.3213400000 O         0.0000000000         0.0000000000       -23.2445377277      183.0239590327      227.9686203814
atom         0.7022700000        5.0913500000        3.6978700000 O         0.0000000000         0.0000000000       -67.9181448231      -62.4036160039      287.8681725765
atom         5.9162400000        5.1700600000        5.4846800000 O         0.0000000000         0.0000000000       246.5562938167      -86.8786614602     -144.2957309102
atom         2.6635500000        1.9576500000       13.7622000000 O         0.0000000000         0.0000000000       227.6805339698      155.1987545982      100.0831551483
atom         3.5318000000        3.4182400000       15.1790000000 O         0.0000000000         0.0000000000        23.2530430252     -183.0124159862     -227.9887522398
atom         0.2583700000        0.4233200000       13.8023000000 O         0.0000000000         0.0000000000        67.9114411099       62.4314669026     -287.8608037263
atom         1.5791100000        0.3448000000       12.0155000000 O         0.0000000000         0.0000000000      -246.5626124069       86.8581291517      144.2985757540
atom         3.2556200000        3.5571600000       10.7382000000 O         0.0000000000         0.0000000000      -227.6747140781     -155.2112972890     -100.1218353508
atom         2.3873900000        2.0965200000        9.3213600000 O         0.0000000000         0.0000000000       -23.2342678131      183.0291120601      227.9670543929
atom         5.6608600000        5.0913500000       10.6979000000 O         0.0000000000         0.0000000000       -67.9208105044      -62.4051950721      287.8591602783
atom         4.3401300000        5.1700600000       12.4847000000 O         0.0000000000         0.0000000000       246.5501575822      -86.8763092843     -144.3058880765
atom         1.0874400000        1.9576500000       20.7622000000 O         0.0000000000         0.0000000000       227.6812970966      155.1999642719      100.0801212554
atom         1.9556800000        3.4182400000       22.1790000000 O         0.0000000000         0.0000000000        23.2452806556     -183.0075816675     -227.9833498039
atom         5.2169500000        0.4233200000       20.8024000000 O         0.0000000000         0.0000000000        67.9225636018       62.4320467979     -287.9061295269
atom         6.5377000000        0.3448000000       19.0155000000 O         0.0000000000         0.0000000000      -246.5746625483       86.8632112944      144.3049613971
atom         1.6795100000        3.5571600000       17.7382000000 O         0.0000000000         0.0000000000      -227.6728545701     -155.2073623317     -100.1205139933
atom         0.8112800000        2.0965200000       16.3214000000 O         0.0000000000         0.0000000000       -23.2337313657      183.0249907269      227.9489939635
atom         4.0847500000        5.0913500000       17.6979000000 O         0.0000000000         0.0000000000       -67.9122160149      -62.4076342626      287.8994338088
atom         2.7640100000        5.1700700000       19.4847000000 O         0.0000000000         0.0000000000       246.5647740679      -86.8859090714     -144.2635509205
atom         6.0460300000        1.9576500000       27.7622000000 O         0.0000000000         0.0000000000       227.6792885816      155.2022618116      100.1012537524
atom         0.1493200000        3.4182400000        1.1789300000 O         0.0000000000         0.0000000000        23.2440054192     -183.0123301302     -227.9792031628
atom         3.6408400000        0.4233100000       27.8024000000 O         0.0000000000         0.0000000000        67.9131023209       62.4332587190     -287.8569190291
atom         4.9615900000        0.3448000000       26.0156000000 O         0.0000000000         0.0000000000      -246.5684844502       86.8593593314      144.3022738381
atom         6.6381000000        3.5571600000       24.7382000000 O         0.0000000000         0.0000000000      -227.6778149539     -155.2080291960     -100.0840105173
atom         5.7698700000        2.0965200000       23.3214000000 O         0.0000000000         0.0000000000       -23.2438345345      183.0260950301      227.9887855884
atom         2.5086300000        5.0913500000       24.6979000000 O         0.0000000000         0.0000000000       -67.9260816719      -62.4056510555      287.9080332644
atom         1.1879000000        5.1700600000       26.4848000000 O         0.0000000000         0.0000000000       246.5638974113      -86.8795283002     -144.3099655360
atom         1.7605300000        9.0719600000        3.2618900000 O         0.0000000000         0.0000000000       227.6752320539     -155.2081003878      100.0985334593
atom         2.6287600000        7.6113200000        4.6786900000 O         0.0000000000         0.0000000000        23.2398547334      183.0260008963     -227.9728152724
atom         5.8899900000       10.6061000000        3.3021600000 O         0.0000000000         0.0000000000        67.9188370653      -62.3961177069     -287.8655102069
atom         0.6760200000       10.6849000000        1.5153500000 O         0.0000000000         0.0000000000      -246.5616961341      -86.8976927986      144.2971710708
atom         2.3526000000        7.4724500000        0.2378900000 O         0.0000000000         0.0000000000      -227.6822824325      155.1990649105     -100.0771294389
atom         1.7146100000        8.9330400000       26.8212000000 O         0.0000000000         0.0000000000       -23.2464106225     -183.0082588198      227.9840185598
atom         4.7577900000        5.9381100000        0.1977200000 O         0.0000000000         0.0000000000       -67.9144381297       62.4332037757      287.8647700220
atom         3.4370400000        5.8596000000        1.9845300000 O         0.0000000000         0.0000000000       246.5664781825       86.8582291517     -144.3006281428
atom         0.1844200000        9.0719600000       10.2619000000 O         0.0000000000         0.0000000000       227.6731690213     -155.2082386325      100.1205911456
atom         1.0526500000        7.6113200000       11.6787000000 O         0.0000000000         0.0000000000        23.2331701548      183.0252905140     -227.9493859928
atom         4.3138800000       10.6061000000       10.3022000000 O         0.0000000000         0.0000000000        67.9197334464      -62.3975522384     -287.8783065637
atom         5.6346100000       10.6849000000        8.5153700000 O         0.0000000000         0.0000000000      -246.5598051691      -86.8966934372      144.2966092212
atom         0.7764900000        7.4724500000        7.2379200000 O         0.0000000000         0.0000000000      -227.6801439506      155.2023561826     -100.0984634261
atom         6.4429400000        8.9330400000        5.8211000000 O         0.0000000000         0.0000000000       -23.2411517532     -183.0128689193      227.9790647995
atom         3.1816700000        5.9381100000        7.1977400000 O         0.0000000000         0.0000000000       -67.9093404713       62.4370024985      287.8623025433
atom         1.8609200000        5.8596000000        8.9845500000 O         0.0000000000         0.0000000000       246.5704633998       86.8620643218     -144.2985568324
atom         5.1430100000        9.0719600000       17.2619000000 O         0.0000000000         0.0000000000       227.6725086619     -155.2062323648      100.1191764815
atom         6.0112300000        7.6113200000       18.6787000000 O         0.0000000000         0.0000000000        23.2381143600      183.0250829691     -227.9500547487
atom         2.7377700000       10.6061000000       17.3022000000 O         0.0000000000         0.0000000000        67.9174505707      -62.3976125036     -287.8545461586
atom         4.0585000000       10.6849000000       15.5154000000 O         0.0000000000         0.0000000000      -246.5571552163      -86.8950544353      144.3050808387
atom         5.7350800000        7.4724500000       14.2379000000 O         0.0000000000         0.0000000000      -227.6824710558      155.1991696881     -100.0833396327
atom         4.8668300000        8.9330400000       12.8211000000 O         0.0000000000         0.0000000000       -23.2527046620     -183.0126927127      227.9892134508
atom         1.6055600000        5.9381200000       14.1978000000 O         0.0000000000         0.0000000000       -67.9139404713       62.4291375743      287.8567282770
atom         0.2848200000        5.8596000000       15.9846000000 O         0.0000000000         0.0000000000       246.5646522603       86.8586226711     -144.3017225138
atom         3.5669000000        9.0719600000       24.2620000000 O         0.0000000000         0.0000000000       227.6770078347     -155.2066686237      100.0840415485
atom         4.4351200000        7.6113200000       25.6788000000 O         0.0000000000         0.0000000000        23.2490705562      183.0245499733     -227.9885319224
atom         1.1616600000       10.6061000000       24.3022000000 O         0.0000000000         0.0000000000        67.9220769187      -62.3914107063     -287.8445022848
atom         2.4823900000       10.6849000000       22.5154000000 O         0.0000000000         0.0000000000      -246.5584088823      -86.8972831249      144.3000997604
atom         4.1589700000        7.4724500000       21.2380000000 O         0.0000000000         0.0000000000      -227.6821982310      155.2077333106     -100.1238310933
atom         3.2907200000        8.9330400000       19.8211000000 O         0.0000000000         0.0000000000       -23.2452647143     -183.0245059810      227.9937165253
atom         6.5641500000        5.9381200000       21.1978000000 O         0.0000000000         0.0000000000       -67.9136868053       62.4291373615      287.8572586696
atom         5.2434000000        5.8596000000       22.9846000000 O         0.0000000000         0.0000000000       246.5666626669       86.8575991848     -144.3005589612
atom         6.0599300000        0.5447500000        5.8488900000 H         0.0000000000         0.0000000000        48.8633654360      119.3630604655      -37.5648334625
atom         5.7066200000        1.8787600000        4.7324500000 H         0.0000000000         0.0000000000        90.0962782187      -41.4065857937       85.1931512435
atom         0.8064900000        2.4319800000        3.1183300000 H         0.0000000000         0.0000000000        93.2589022109      -52.1988466835       73.6699360783
atom         2.0782500000        1.2176900000        3.0225500000 H         0.0000000000         0.0000000000       -42.6349328965       97.4787582643       80.0500555775
atom         3.0116200000        4.9700500000        4.6515500000 H         0.0000000000         0.0000000000       -48.8757020963     -119.3677501532       37.5427999953
atom         3.3647900000        3.6359000000        5.7678500000 H         0.0000000000         0.0000000000       -90.0920295431       41.4189637975      -85.1908585755
atom         1.7301500000        3.0829300000        7.3820000000 H         0.0000000000         0.0000000000       -93.2527450446       52.1927423317      -73.6776767832
atom         0.4584100000        4.2972000000        7.4776600000 H         0.0000000000         0.0000000000        42.6322455505      -97.4786996079      -80.0457404876
atom         4.4838100000        0.5447500000       12.8489000000 H         0.0000000000         0.0000000000        48.8664480045      119.3644671589      -37.5652022183
atom         4.1305100000        1.8787600000       11.7325000000 H         0.0000000000         0.0000000000        90.0943632474      -41.4071499849       85.1806568968
atom         5.7650800000        2.4319800000       10.1184000000 H         0.0000000000         0.0000000000        93.2589253901      -52.1986970621       73.6576465092
atom         0.5021300000        1.2176900000       10.0226000000 H         0.0000000000         0.0000000000       -42.6343436346       97.4786254358       80.0411343386
atom         1.4355100000        4.9700500000       11.6516000000 H         0.0000000000         0.0000000000       -48.8754971058     -119.3653666389       37.5283692956
atom         1.7886800000        3.6359000000       12.7679000000 H         0.0000000000         0.0000000000       -90.0931641689       41.4194352022      -85.2101379266