begin
comment generated by PY
lattice        13.3100000000         0.0000000000         0.0000000000
lattice         0.0000000000        13.3100000000         0.0000000000
lattice         0.0000000000         0.0000000000        13.3100000000
atom         0.0275100000        3.2417500000        1.1534900000 C         0.0000000000         0.0000000000        -2.3952760615        1.2938581673       -5.8700163754
atom         1.2763200000        2.8862500000        1.9626800000 C         0.0000000000         0.0000000000        -4.9416909546        3.3804918542       -4.1050542727
atom        12.9494000000        2.0568500000        0.2461800000 C         0.0000000000         0.0000000000         4.8673437478        8.1791382295        2.5882236667
atom        12.1589000000        3.5462700000        2.0814500000 C         0.0000000000         0.0000000000        11.2250445925       -3.8259985812       -2.9472533387
atom         0.3188000000        4.4862300000        0.2940100000 C         0.0000000000         0.0000000000        -5.9773862869       -8.4746591522        4.3663072212
atom         6.7245500000        3.2690000000        4.3597100000 C         0.0000000000         0.0000000000         0.8502885263        1.1959892015        3.6957526061
atom         5.5527600000        2.7591100000        5.2211300000 C         0.0000000000         0.0000000000        12.1068338274        0.8767159143       -9.9256057726
atom         7.1474600000        2.1089300000        3.4371900000 C         0.0000000000         0.0000000000        -6.9663840095        5.4154699135        3.0113386016
atom         7.9136400000        3.6493800000        5.2439900000 C         0.0000000000         0.0000000000        -5.0530272804       -4.1149011267       -6.3274223452
atom         6.2684800000        4.4923400000        3.5509400000 C         0.0000000000         0.0000000000         3.1389095532       -6.7328267792        6.6335741806
atom        13.2673000000       10.0521000000        5.5166100000 C         0.0000000000         0.0000000000         3.0954865413       -2.8343027745        6.3984949542
atom        12.0123000000       10.3597000000        4.7079000000 C         0.0000000000         0.0000000000         2.3417064084       -5.1338083801        5.4333648988
atom         0.3104100000       11.2573000000        6.4115000000 C         0.0000000000         0.0000000000        -5.6231762695       -8.1770397196       -1.1958277777
atom         1.1390400000        9.7729700000        4.5871700000 C         0.0000000000         0.0000000000       -10.7939968291        4.3317625202        1.2684223829
atom        12.9999000000        8.8171600000        6.3970200000 C         0.0000000000         0.0000000000         7.6420811268        9.3883411250       -4.7797597865
atom         6.6493000000       10.0361000000        2.3005300000 C         0.0000000000         0.0000000000        -1.4378943502        2.1912132721        0.7062984645
atom         7.7938100000       10.5359000000        1.4126900000 C         0.0000000000         0.0000000000        -4.2145457547       -3.4716502005        9.3412053649
atom         6.2281600000       11.1872000000        3.2330900000 C         0.0000000000         0.0000000000         2.8267619753       -9.0251605544       -4.8350820411
atom         5.4333700000        9.6351700000        1.4575500000 C         0.0000000000         0.0000000000         5.5414727478        2.6922959199        5.2028747214
atom         7.1417300000        8.8347700000        3.1201900000 C         0.0000000000         0.0000000000        -4.5944221621        3.8655935422       -9.3641967313
atom         0.0363800000        3.2972500000        7.7766800000 C         0.0000000000         0.0000000000        -3.8627340342        0.4028677738       -2.7851146256
atom         1.2278400000        2.9676300000        8.6713000000 C         0.0000000000         0.0000000000        -6.4881313043        4.3680137017        0.0309472554
atom        13.0185000000        2.0903800000        6.8752200000 C         0.0000000000         0.0000000000         4.0029882872        9.0433092057        2.9361150940
atom        12.1146000000        3.6163300000        8.6333400000 C         0.0000000000         0.0000000000        10.4741009071       -4.4392707951       -3.5516933626
atom         0.3944100000        4.5117100000        6.9037100000 C         0.0000000000         0.0000000000        -8.6928580575       -6.1476192523        6.1603256143
atom         6.5760500000        3.4261300000       11.1191000000 C         0.0000000000         0.0000000000        -0.7925910352       -7.0881667636       -1.3694506437
atom         5.4243300000        3.1082000000       12.0853000000 C         0.0000000000         0.0000000000        12.4211952179        1.8971451639       -1.3354824565
atom         6.9058400000        2.1826700000       10.2708000000 C         0.0000000000         0.0000000000        -3.4524868851       10.7104023426        2.9920830440
atom         7.8306400000        3.8533200000       11.8906000000 C         0.0000000000         0.0000000000        -5.7167098522       -4.1357248016       -6.7014874945
atom         6.0987600000        4.5527800000       10.1980000000 C         0.0000000000         0.0000000000         9.6041186728        1.6232780957        8.2309091598
atom         0.0077600000       10.0093000000       12.1576000000 C         0.0000000000         0.0000000000        -0.0363203631       -2.2301394772        2.3625992649
atom        12.0927000000       10.4184000000       11.3284000000 C         0.0000000000         0.0000000000         9.8890778646       -1.1131095920        4.6114869676
atom         0.4614500000       11.1798000000       13.0436000000 C         0.0000000000         0.0000000000        -2.2825561028       -3.7889864017       -6.8147147852
atom         1.1936000000        9.6409300000       11.2525000000 C         0.0000000000         0.0000000000        -8.8378397229        4.1252783733        4.8849620065
atom        12.9387000000        8.7965400000       13.0240000000 C         0.0000000000         0.0000000000         5.5472609454        7.3092251768       -5.4185369664
atom         6.6646000000        9.9010000000        8.8545700000 C         0.0000000000         0.0000000000         0.5877211266        2.9234779137        2.3132035711
atom         7.8598900000       10.1560000000        7.9272700000 C         0.0000000000         0.0000000000       -11.2570756937       -6.8376600305        1.9352181286
atom         6.4003900000       11.1592000000        9.6979900000 C         0.0000000000         0.0000000000         4.7368210461      -12.5618184397       -3.5048112685
atom         5.4208900000        9.5975900000        8.0152500000 C         0.0000000000         0.0000000000         7.8572360398        5.6713036332        2.9037150240
atom         6.9842800000        8.7148000000        9.7809500000 C         0.0000000000         0.0000000000        -5.6408406492        7.5174158043       -5.2005917271
atom         2.0333200000        2.4273000000        1.3241500000 H         0.0000000000         0.0000000000         3.5135050951       -3.0558223987       -1.8685039632
atom        12.4659000000        1.2673200000        0.8215400000 H         0.0000000000         0.0000000000        -2.9738652111       -5.4847207392        1.4940006635
atom         1.6779900000        3.8053900000        2.4036300000 H         0.0000000000         0.0000000000         3.4548160004       -0.7154996232        3.1622468278
atom         0.6473100000        1.7213800000        6.4525700000 H         0.0000000000         0.0000000000        -1.8522001558       -5.7813716288       -4.6807839144
atom        11.3424000000        4.0107500000        1.5304800000 H         0.0000000000         0.0000000000        -5.2247361209        1.5515597913       -2.3887499264
atom        11.8438000000        2.5903200000        2.5174500000 H         0.0000000000         0.0000000000        -5.5708288255        3.5728398852        5.2769221411
atom         0.7914200000        5.2662000000        0.8919200000 H         0.0000000000         0.0000000000         3.2072840781        3.5393559694        1.6421185634
atom        12.7834000000        4.8880300000        6.4439300000 H         0.0000000000         0.0000000000         2.3787185880        3.7301358831       -4.0530066159
atom         4.6827200000        2.6553200000        4.5675300000 H         0.0000000000         0.0000000000        -7.2833512419       -5.8821001025        3.7103268724
atom         7.6620700000        1.3385200000        4.0178900000 H         0.0000000000         0.0000000000         3.6060701348       -1.2781308736       -1.6861872706
atom         5.3439000000        3.4122300000        6.0685500000 H         0.0000000000         0.0000000000        -1.1109880216        4.7533554590        0.2852359184
atom         6.2214500000        1.6917600000        3.0110700000 H         0.0000000000         0.0000000000         6.5214768567       -3.0242294479       -6.3782708536
atom         8.6835900000        4.1389800000        4.6428300000 H         0.0000000000         0.0000000000         3.0123993868        3.7627896191       -0.8605735307
atom         8.3397700000        2.7437000000        5.6947500000 H         0.0000000000         0.0000000000         0.2990722472        0.8215550835        2.2892667223
atom         5.8303200000        5.2397000000        4.2170400000 H         0.0000000000         0.0000000000        -2.7089686961        4.6857649928        0.5529688808
atom         7.1257600000        4.9070300000        3.0102700000 H         0.0000000000         0.0000000000        -0.7161683791        3.9069641653       -1.7756852575
atom        11.2370000000       10.7782000000        5.3514300000 H         0.0000000000         0.0000000000        -3.8714278608        3.6729918452        1.7866390178
atom         0.8071000000       12.0402000000        5.8398200000 H         0.0000000000         0.0000000000         3.0298562217        4.9872816580       -1.6128547280
atom        11.6443000000        9.4290900000        4.2613300000 H         0.0000000000         0.0000000000        -2.7595865990        0.8008005903       -3.2251560028
atom        12.9657000000       11.4800000000        0.4147000000 H         0.0000000000         0.0000000000         0.2190290850        2.2278334224        0.4735483534
atom         1.9614600000        9.2998000000        5.1219600000 H         0.0000000000         0.0000000000         4.6938131240       -1.1768258862        2.1179960322
atom         1.4433200000       10.7441000000        4.1768300000 H         0.0000000000         0.0000000000         6.7079444479       -3.4168583384       -5.7755834313
atom        12.5127000000        8.0266700000        5.8275400000 H         0.0000000000         0.0000000000        -3.0066803709       -4.4439290258       -1.8766212761
atom         0.5414400000        8.3943600000        0.1720400000 H         0.0000000000         0.0000000000        -3.3539952845       -2.2863149721        4.4792808459
atom         8.6250400000       10.8703000000        2.0369400000 H         0.0000000000         0.0000000000         3.8312794467        3.3048532567       -0.8021842231
atom         5.7733900000       11.9869000000        2.6443600000 H         0.0000000000         0.0000000000        -3.7259388634        3.1816868698        2.0993169883
atom         8.1307100000        9.7454700000        0.7341300000 H         0.0000000000         0.0000000000         1.0861287508       -2.0945434548       -0.8493199833
atom         7.1278500000       11.5418000000        3.7542200000 H         0.0000000000         0.0000000000        -5.0719369298        4.0910334595        3.9279492640
atom         4.6794700000        9.1676600000        2.0972800000 H         0.0000000000         0.0000000000        -2.6358436983       -4.4462812017       -0.4067650064
atom         5.0001700000       10.5288000000        0.9878300000 H         0.0000000000         0.0000000000         0.2218424719       -1.9376625467       -1.6274289943
atom         7.5147100000        8.0547400000        2.4504600000 H         0.0000000000         0.0000000000         2.6378269055       -3.9785671669       -0.1612393517
atom         6.3248000000        8.4479800000        3.7411600000 H         0.0000000000         0.0000000000         0.1668661254       -2.5408111800        0.7403358334
atom         2.0275100000        2.5055600000        8.0992500000 H         0.0000000000         0.0000000000         6.4034990931       -4.9319132822       -3.6314136771
atom        12.5080000000        1.3086400000        7.4396200000 H         0.0000000000         0.0000000000        -2.1232768977       -4.1144629763        0.4767998907
atom         1.6024200000        3.8921600000        9.1278500000 H         0.0000000000         0.0000000000         1.5975886452       -1.9073609866        1.8452128097
atom         0.5512700000        1.6878000000       13.0764000000 H         0.0000000000         0.0000000000        -1.6023391181       -5.2243210310       -3.7297899749
atom        11.3462000000        4.1151200000        8.0443000000 H         0.0000000000         0.0000000000        -4.4424992718        2.8014414936       -1.8790887548
atom        11.7385000000        2.6661400000        9.0356900000 H         0.0000000000         0.0000000000        -4.7037522202        3.5048804502        4.0840691740
atom         0.8622200000        5.2980900000        7.4950600000 H         0.0000000000         0.0000000000         4.0411304336        3.7122639584        2.0292129223
atom        12.6721000000        4.8459400000       13.1987000000 H         0.0000000000         0.0000000000         4.5516217850        3.8189189930       -3.9212155840
atom         4.6297200000        2.5892600000       11.5483000000 H         0.0000000000         0.0000000000        -5.0174679154       -1.7543081295        1.4232739628
atom         7.3848800000        1.4119900000       10.8736000000 H         0.0000000000         0.0000000000         3.2398225113       -3.0075566717        1.5164846978
atom         5.0716000000        4.0695000000       12.4841000000 H         0.0000000000         0.0000000000        -5.0940750559       -5.2107614288        4.0674194584
atom         5.9633200000        1.8120800000        9.8417100000 H         0.0000000000         0.0000000000         4.1021947648       -4.0579876942       -5.3094836348
atom         8.5181800000        4.3900500000       11.2332000000 H         0.0000000000         0.0000000000         3.6620380849        4.0089840297       -0.5800650247
atom         8.3298200000        2.9646300000       12.2921000000 H         0.0000000000         0.0000000000         1.8475188645       -0.4262050484        1.5038936386
atom         5.7187300000        5.3891000000       10.7884000000 H         0.0000000000         0.0000000000        -2.6706881864        4.9495776620        1.8929020230
atom         6.9289100000        4.8909100000        9.5695000000 H         0.0000000000         0.0000000000         0.8661311228        2.6759690519       -1.6235778828
atom        11.3480000000       10.9099000000       11.9564000000 H         0.0000000000         0.0000000000        -4.0849685354        3.7914769409        0.8242070465
atom         0.7744900000       12.0194000000       12.4165000000 H         0.0000000000         0.0000000000         1.0834076062        4.2011014552        0.2844749203
atom        11.6593000000        9.5287100000       10.8605000000 H         0.0000000000         0.0000000000        -2.5795298401       -0.3891006266       -1.5962050123
atom        12.6827000000       11.6286000000        6.8403700000 H         0.0000000000         0.0000000000         3.3259305976        5.2589579742        4.6776938010
atom         1.9789800000        9.1703300000       11.8483000000 H         0.0000000000         0.0000000000         2.7128659287       -3.8299188744       -1.0857828426
atom         1.5717500000       10.5657000000       10.7948000000 H         0.0000000000         0.0000000000         2.9251152126       -3.4559690278       -3.0686210029
atom        12.4612000000        8.0281900000       12.4137000000 H         0.0000000000         0.0000000000        -3.1214757789       -3.8014852187       -1.6644872950
atom         0.6609100000        8.4755600000        6.7796200000 H         0.0000000000         0.0000000000        -4.1411209698       -5.2891903526        4.6576772453
atom         8.6651900000       10.6592000000        8.4550800000 H         0.0000000000         0.0000000000         6.7464325026        1.4406846765        2.2320765632
atom         5.8994700000       11.9148000000        9.0987100000 H         0.0000000000         0.0000000000        -2.0656255276        6.2691252798       -2.4693234811
atom         8.1805000000        9.1716600000        7.5629500000 H         0.0000000000         0.0000000000         6.5977842101        3.9939946735       -5.7396320369
atom         7.3718400000       11.5226000000       10.0586000000 H         0.0000000000         0.0000000000        -4.0100448149        5.4085517491        6.1474808891
atom         4.6506600000        9.1218900000        8.6179500000 H         0.0000000000         0.0000000000        -5.4509370364       -3.6408915623        2.5182349035
atom         5.0514400000       10.5462000000        7.6080600000 H         0.0000000000         0.0000000000        -4.1053771204       -2.3803328264       -2.9854185456
atom         7.4721700000        7.9077500000        9.2341800000 H         0.0000000000         0.0000000000         1.6438250439       -5.1769777260       -1.8358271667
atom         6.0381500000        8.3788400000       10.2204000000 H         0.0000000000         0.0000000000         2.5468299830       -5.6459600909        4.3638628031
atom         2.0016000000        1.3895500000        3.6764300000 N         0.0000000000         0.0000000000        -3.2048627205        2.0536571032       -0.6497540008
atom        11.3720000000        1.6011300000        5.1654800000 N         0.0000000000         0.0000000000         8.0177143934       -1.0255025701        2.2140201541
atom        11.5934000000        5.2656000000        3.6665200000 N         0.0000000000         0.0000000000        -4.6690922166       -2.8150933380       -3.0160660140
atom         2.0055400000        5.0346700000        5.2041600000 N         0.0000000000         0.0000000000        -5.1189343266        1.8032887334       -0.0386033574
atom         4.9729400000        1.3198000000        0.3456100000 N         0.0000000000         0.0000000000        -3.7528735835        2.3977896612       -2.7339432696
atom         8.8137300000        1.6176000000        1.7542500000 N         0.0000000000         0.0000000000        -8.1679538637       -5.2695658262        3.0335689699
atom         8.5075300000        5.2830000000        0.3555800000 N         0.0000000000         0.0000000000        -1.8213912636       -1.3702808234       -1.8209992343
atom         4.6401300000        5.0362100000        1.8793300000 N         0.0000000000         0.0000000000         5.9001334511        2.8987800668        3.6888575022
atom        11.2432000000       11.8661000000        3.0330600000 N         0.0000000000         0.0000000000         1.0495086006       -2.4285063112        2.7664817028
atom         2.0363600000       11.6203000000        1.4704900000 N         0.0000000000         0.0000000000        -5.1280663036        1.9700856772       -5.6907897962
atom         1.7075400000        8.0632300000        2.9919900000 N         0.0000000000         0.0000000000         6.9814425474        2.0532420134        2.1464758090
atom        11.3249000000        8.2315400000        1.4076500000 N         0.0000000000         0.0000000000         5.9244623292       -0.4119766902       -0.8727725606
atom         8.3866100000       11.9239000000        6.3722700000 N         0.0000000000         0.0000000000         5.3461268456       -1.5065686622        0.2774875742
atom         4.4486000000       11.5802000000        4.8353500000 N         0.0000000000         0.0000000000         3.6433590410        4.6668322828       -5.3919481545
atom         4.7268500000        8.0299300000        6.3445900000 N         0.0000000000         0.0000000000         1.8026891592        0.1736228660        1.1924609377
atom         8.7246400000        8.3215800000        4.8191000000 N         0.0000000000         0.0000000000        -6.7106425321       -1.8694955668       -5.4113651360
atom         1.8565000000        1.4566100000       10.3998000000 N         0.0000000000         0.0000000000        -1.9287611752        2.4199739084       -1.2356533441
atom        11.3233000000        1.5881400000       11.8281000000 N         0.0000000000         0.0000000000         6.8715359755       -0.5347510479        0.1662665512
atom        11.5121000000        5.2318900000       10.3033000000 N         0.0000000000         0.0000000000        -2.0269299281       -2.8012570092       -2.2656066000
atom         1.9185300000        5.1353300000       11.9212000000 N         0.0000000000         0.0000000000        -4.8323608965        0.7603754496       -0.0090397348
atom         5.3323400000        1.0137000000        6.8721900000 N         0.0000000000         0.0000000000         5.5625500887        5.1088799277        7.2138698108
atom         8.5722700000        1.5875300000        8.6102200000 N         0.0000000000         0.0000000000        -5.7245043174       -2.2975685195        1.4044104345
atom         8.5083700000        5.2057900000        6.9513600000 N         0.0000000000         0.0000000000         0.0393643555       -1.5112960745       -2.8721912549
atom         4.5414000000        4.9717700000        8.4695700000 N         0.0000000000         0.0000000000         7.7272206701        9.0804828091        6.0513414644
atom        11.5109000000       11.9179000000        9.5668900000 N         0.0000000000         0.0000000000         1.2202950192       -2.5643098784        5.2128599387
atom         1.9852300000       11.7742000000        8.0935700000 N         0.0000000000         0.0000000000        -5.6486351145        0.2841520726       -0.4713806619
atom         1.7549800000        8.0161600000        9.5809800000 N         0.0000000000         0.0000000000         1.7502033519        4.2919600144        5.3544517035
atom        11.3849000000        8.2210100000        8.0880800000 N         0.0000000000         0.0000000000         4.2486984263       -1.0440432507        1.7374047478
atom         8.1659300000       12.0734000000       12.9640000000 N         0.0000000000         0.0000000000         2.0192046445       -4.5751896650        6.8555550158
atom         4.7170500000       11.8312000000       11.2909000000 N         0.0000000000         0.0000000000         1.5802240525        4.0857064729        2.9589911576
atom         4.7914500000        8.1505100000       13.0147000000 N         0.0000000000         0.0000000000         3.1042034285        4.0698638765        4.2030616018
atom         8.6313000000        8.2018000000       11.4750000000 N         0.0000000000         0.0000000000        -6.2778652275       -3.2868890898       -0.6119116415
atom         0.8659600000        1.9824300000        3.0137500000 O         0.0000000000         0.0000000000         4.7257058619       -2.4299591257       -2.5953724366
atom        12.1608000000        2.6084100000        5.8210700000 O         0.0000000000         0.0000000000        -7.5638136269       -5.3276092256        4.5432046850
atom         1.6652400000        0.6842600000        4.6139200000 O         0.0000000000         0.0000000000         4.5984577580        0.3151685097       -3.1732697697
atom        10.5273000000        2.0911300000        4.4306400000 O         0.0000000000         0.0000000000         0.8995689174       -4.3937492733        0.4859779888
atom         3.1025500000        1.6727400000        3.2360400000 O         0.0000000000         0.0000000000        -0.7314805829       -4.4575347491        4.6774631955
atom        11.6571000000        0.4351600000        5.3904800000 O         0.0000000000         0.0000000000        -5.6227611796        2.6252127857       -2.9390668441
atom        12.6484000000        4.4369300000        3.1141500000 O         0.0000000000         0.0000000000        -8.3857146186        0.9371806712       -3.4903523049
atom         1.2959500000        4.0092300000        5.8968400000 O         0.0000000000         0.0000000000         6.1416235099        0.4731102030        1.4021505008
atom        12.0136000000        6.0085200000        4.5365400000 O         0.0000000000         0.0000000000        -3.1783892114        1.2385128521       -2.6334223408
atom        10.4709000000        5.1178800000        3.2096500000 O         0.0000000000         0.0000000000         3.9539154411        4.7055278824        8.7547064473
atom         2.8113400000        4.5703700000        4.4086400000 O         0.0000000000         0.0000000000        -0.2156391845        5.5885854474        1.0484247548
atom         1.7073900000        6.1873900000        5.4683900000 O         0.0000000000         0.0000000000         5.8120421577       -0.9495872460       -5.1537326936
atom         5.9987100000        1.4675200000        5.6903100000 O         0.0000000000         0.0000000000        -6.3327723923       -5.8487084290       -2.4719062625
atom         8.0100000000        2.6451100000        2.4027200000 O         0.0000000000         0.0000000000         1.4975750485       -8.5813603079        3.3135470833
atom         5.4625800000        0.5347900000        1.1406200000 O         0.0000000000         0.0000000000        -4.1593388027        5.4684630528       -3.5898585696
atom         9.4908400000        2.0843500000        0.8527400000 O         0.0000000000         0.0000000000         2.0570470038       -1.9690710131        2.3177234385
atom         4.7992300000        1.8772600000        7.5538900000 O         0.0000000000         0.0000000000        -7.2677623115      -11.1541795285        2.7535677959
atom         8.7058300000        0.4669100000        2.1519400000 O         0.0000000000         0.0000000000         0.6174461730       10.9565506320       -4.5209512561
atom         7.4193400000        4.5316900000        6.2759400000 O         0.0000000000         0.0000000000         5.8954521598        1.7322161245       -2.5697521677
atom         5.2822800000        4.0003600000        2.6134800000 O         0.0000000000         0.0000000000        -0.4687286989       -1.7121534477        1.5074449630
atom         8.1437800000        6.0173200000        1.2600400000 O         0.0000000000         0.0000000000         6.3218878137        0.1066319740       -1.5761423355
atom         9.6342600000        4.9267900000        6.5756500000 O         0.0000000000         0.0000000000        -0.2801625978        5.3898035236        6.5519629012
atom         3.8144300000        4.5959400000        1.0946600000 O         0.0000000000         0.0000000000        -2.9009246977        3.9328611607       -1.4843844150
atom         4.9964500000        6.1801400000        2.1108500000 O         0.0000000000         0.0000000000        -5.0878256474        1.0082302196       -4.9876967479
atom        12.3901000000       11.2835000000        3.6727800000 O         0.0000000000         0.0000000000        -1.2059282977        4.0841152951        1.1800082418
atom         1.5903800000       10.6788000000        0.4946800000 O         0.0000000000         0.0000000000        -3.7258005001        1.6407118700        2.7448970299
atom        11.5607000000       12.6351000000        2.1433900000 O         0.0000000000         0.0000000000        -4.6305119197        0.8136683761       -0.9720020987
atom         2.8905400000       11.1551000000        2.2051100000 O         0.0000000000         0.0000000000         1.5107426214        3.1691649922        3.1550980579
atom        10.1527000000       11.5141000000        3.4535100000 O         0.0000000000         0.0000000000         1.2655398144        7.2211800045       -5.5775625055
atom         1.5155700000       12.7259000000        1.4481900000 O         0.0000000000         0.0000000000         4.9626299322        0.0850242405        4.8747692443
atom         0.6618700000        8.9120900000        3.5201500000 O         0.0000000000         0.0000000000         7.1591471303       -0.0524396862        5.4959051050
atom        12.0235000000        9.2917800000        0.7231200000 O         0.0000000000         0.0000000000        -1.9404067519       -4.4993665832       -1.3004073629
atom         1.2901900000        7.3341400000        2.1087300000 O         0.0000000000         0.0000000000         2.9157987512       -1.8587724120        2.3255179037
atom         2.8234500000        8.1858000000        3.4712500000 O         0.0000000000         0.0000000000        -3.9366892117       -4.9500619335       -8.9832134176
atom        10.5600000000        8.6592700000        2.2592400000 O         0.0000000000         0.0000000000         0.8355067150       -3.1661440604       -3.5657602969
atom        11.5953000000        7.0911200000        1.0732300000 O         0.0000000000         0.0000000000        -4.4698721423        0.3237931546        5.3812249997
atom         7.2467700000       11.6283000000        0.6524600000 O         0.0000000000         0.0000000000        -0.1913564274       -2.2109531012       -5.6468133312
atom         5.2835800000       10.6162000000        4.1794600000 O         0.0000000000         0.0000000000         4.5662882935        3.0887759218       -2.1346226873