begin
comment generated by PY
lattice        13.3100000000         0.0000000000         0.0000000000
lattice         0.0000000000        13.3100000000         0.0000000000
lattice         0.0000000000         0.0000000000        13.3100000000
atom         0.0012800000        3.3319500000        1.0924000000 C         0.0000000000         0.0000000000         0.5319688479        0.1999012371       -6.3232370259
atom         1.1891500000        2.8778900000        1.9457800000 C         0.0000000000         0.0000000000        -2.8704151930       -1.8046173348        1.1561402845
atom        12.8531000000        2.1501800000        0.2289700000 C         0.0000000000         0.0000000000        -3.7968807952        3.8151774998        1.1309676549
atom        12.1239000000        3.7996000000        1.9394700000 C         0.0000000000         0.0000000000         1.7899649826        1.2399071031        2.3286136928
atom         0.4638400000        4.5019100000        0.2150100000 C         0.0000000000         0.0000000000         4.2311726605       -4.0963610390        1.1916503198
atom         6.6565300000        3.3292100000        4.1240000000 C         0.0000000000         0.0000000000        -0.2577956518       -0.3365649164       -0.6252087107
atom         5.4294500000        3.0254400000        4.9936000000 C         0.0000000000         0.0000000000        10.6121190163        0.1081958524        0.3365931771
atom         6.9720000000        2.1056200000        3.2513600000 C         0.0000000000         0.0000000000        -0.1213539505        8.5301998450        8.2091950266
atom         7.8841900000        3.6306300000        4.9941700000 C         0.0000000000         0.0000000000       -10.1101339729       -0.1696707008        0.8985974645
atom         6.3405400000        4.5539200000        3.2528500000 C         0.0000000000         0.0000000000         0.3608234371       -8.4639129372        8.2674406939
atom         0.0031400000        9.9840900000        5.8533800000 C         0.0000000000         0.0000000000         0.2151862991       -0.3526229495        0.6036255748
atom        12.0852000000       10.2850000000        4.9833200000 C         0.0000000000         0.0000000000        10.1656880772       -0.1128119987       -0.8692946935
atom         0.3188600000       11.2091000000        6.7242500000 C         0.0000000000         0.0000000000        -0.3617076182       -8.4890223633       -8.2850776282
atom         1.2301100000        9.6803800000        4.9836100000 C         0.0000000000         0.0000000000       -10.6056636995        0.1003024936       -0.3323269234
atom        12.9980000000        8.7605500000        6.7262100000 C         0.0000000000         0.0000000000         0.1420274174        8.5539319163       -8.2262926238
atom         6.6562700000        9.9658100000        2.2294300000 C         0.0000000000         0.0000000000         0.5620488529       -0.1778658844        6.3221388232
atom         7.8439600000       10.4195000000        1.3756300000 C         0.0000000000         0.0000000000        -2.9025795204        1.8472584779       -1.1289938760
atom         6.1986600000       11.1478000000        3.0929200000 C         0.0000000000         0.0000000000        -3.8297906427       -3.8924106811       -1.1521040144
atom         5.4685300000        9.4984100000        1.3827800000 C         0.0000000000         0.0000000000         1.7579883378       -1.2404358590       -2.3208087350
atom         7.1189300000        8.7958900000        3.1068000000 C         0.0000000000         0.0000000000         4.2251651079        4.0998317911       -1.2001519278
atom         0.0035200000        3.3107500000        7.7474300000 C         0.0000000000         0.0000000000        -0.5385314074       -0.2332229514       -6.3246939182
atom         1.1908700000        2.8430500000        8.5945000000 C         0.0000000000         0.0000000000        -1.7720424524       -1.2330645538        2.3270766429
atom        12.8510000000        2.1407400000        6.8700500000 C         0.0000000000         0.0000000000        -4.2131707651        4.1154743124        1.2058714396
atom        12.1256000000        3.7647900000        8.6007600000 C         0.0000000000         0.0000000000         2.8824485467        1.8147308019        1.1541193393
atom         0.4617500000        4.4924500000        6.8840300000 C         0.0000000000         0.0000000000         3.8115469876       -3.7985367860        1.1099307009
atom         6.6582000000        3.3138500000       10.7786000000 C         0.0000000000         0.0000000000         0.2763902792        0.3659441285       -0.5686327829
atom         5.4305200000        3.0122300000       11.6488000000 C         0.0000000000         0.0000000000        10.1000997957        0.1494989890        0.8622196280
atom         6.9744700000        2.0892100000        9.9075800000 C         0.0000000000         0.0000000000        -0.3466769661        8.4290096881        8.2511764328
atom         7.8851900000        3.6178600000       11.6483000000 C         0.0000000000         0.0000000000       -10.5998955631       -0.0971105497        0.3493718947
atom         6.3426500000        4.5375000000        9.9061300000 C         0.0000000000         0.0000000000         0.1077630417       -8.5361239036        8.2298554332
atom         0.0005200000        9.9688800000       12.5084000000 C         0.0000000000         0.0000000000        -0.2596935927        0.3947579952        0.6388553664
atom        12.0836000000       10.2727000000       11.6386000000 C         0.0000000000         0.0000000000        10.6499421748       -0.0687060668       -0.3451584415
atom         0.3156600000       11.1925000000        0.0711800000 C         0.0000000000         0.0000000000        -0.1303590695       -8.5830165369       -8.2457729693
atom         1.2284600000        9.6677800000       11.6385000000 C         0.0000000000         0.0000000000       -10.1190399282        0.1449902331       -0.8912001325
atom        12.9945000000        8.7440400000        0.0693200000 C         0.0000000000         0.0000000000         0.3816014070        8.4166760080       -8.2779274345
atom         6.6573200000        9.9871000000        8.8844000000 C         0.0000000000         0.0000000000        -0.5716698491        0.1406675572        6.3238036199
atom         7.8451600000       10.4544000000        8.0378500000 C         0.0000000000         0.0000000000        -1.7420122499        1.2449604657       -2.3279141263
atom         6.1946100000       11.1569000000        9.7618500000 C         0.0000000000         0.0000000000        -4.2147835254       -4.0838485751       -1.1736462026
atom         5.4697000000        9.5334500000        8.0305100000 C         0.0000000000         0.0000000000         2.8873085798       -1.8166527929       -1.1231774344
atom         7.1147600000        8.8050100000        9.7478300000 C         0.0000000000         0.0000000000         3.8024485728        3.8490692168       -1.1520894275
atom         1.9058400000        2.3385600000        1.3195100000 H         0.0000000000         0.0000000000       -74.3827696060       56.1578078723       71.8393642155
atom        12.3300000000        1.4208900000        0.8527700000 H         0.0000000000         0.0000000000        55.3252093627       75.2988826944      -71.8792396799
atom         1.6716600000        3.7376700000        2.4124300000 H         0.0000000000         0.0000000000       -47.7499566755      -92.9581614984      -50.6065034814
atom         0.3892600000        1.6866600000        6.3551100000 H         0.0000000000         0.0000000000       -92.6035849060       44.2067099218       55.7013832522
atom        11.4166000000        4.3527900000        1.3147600000 H         0.0000000000         0.0000000000        73.5082988582      -57.7250805056       71.4184655961
atom        11.6256000000        2.9452600000        2.3990200000 H         0.0000000000         0.0000000000        49.5452995335       92.2192632347      -49.8924304893
atom         0.9829400000        5.2398300000        0.8322800000 H         0.0000000000         0.0000000000       -54.9202229837      -76.1501062537      -71.2146955416
atom        12.9193000000        4.9545600000        6.3822600000 H         0.0000000000         0.0000000000        93.1928225031      -45.1829395542       54.2673313348
atom         4.6289200000        2.5920300000        4.3930900000 H         0.0000000000         0.0000000000        83.7837016013       45.2812926914       69.8343610987
atom         7.4302700000        1.3298700000        3.8669500000 H         0.0000000000         0.0000000000       -48.1145730189       80.1363229673      -71.9078517471
atom         5.0984900000        3.9544700000        5.4738100000 H         0.0000000000         0.0000000000        29.8656964163     -102.9498797806      -51.7686777478
atom         6.0480700000        1.7489200000        2.7868500000 H         0.0000000000         0.0000000000       101.8056650854       32.4626493825       48.2870653244
atom         8.6841500000        4.0667200000        4.3946300000 H         0.0000000000         0.0000000000       -83.7525503925      -45.5787831850       69.7679825718
atom         8.2170800000        2.7008300000        5.4716500000 H         0.0000000000         0.0000000000       -30.1937470504      102.9426356970      -51.7329366567
atom         5.8818200000        5.3281000000        3.8697900000 H         0.0000000000         0.0000000000        48.2117671526      -79.8277545945      -72.0295184716
atom         7.2653100000        4.9097800000        2.7898700000 H         0.0000000000         0.0000000000      -101.9066661527      -32.1891099152       48.0819654460
atom        11.2852000000       10.7208000000        5.5830000000 H         0.0000000000         0.0000000000        83.7504940777      -45.5537780760      -69.7847573825
atom         0.7773800000       11.9832000000        6.1071100000 H         0.0000000000         0.0000000000       -48.1900942578      -79.8111652383       72.0469974455
atom        11.7527000000        9.3551200000        4.5058400000 H         0.0000000000         0.0000000000        30.1463796904      102.9432544301       51.7277647320
atom        12.7016000000       11.5488000000        0.5358800000 H         0.0000000000         0.0000000000       101.8336499469      -32.4246913404      -48.3032365162
atom         2.0307500000        9.2470500000        5.5840100000 H         0.0000000000         0.0000000000       -83.7884463509       45.2723465703      -69.8208539795
atom         1.5609700000       10.6094000000        4.5032500000 H         0.0000000000         0.0000000000       -29.8614191454     -102.9550976136       51.7816204628
atom        12.5402000000        7.9845600000        6.1106100000 H         0.0000000000         0.0000000000        48.0568628251       80.1565170311       71.9130368702
atom         0.6092000000        8.3881600000        0.5324700000 H         0.0000000000         0.0000000000      -101.8919743363       32.1989470955      -48.1051890266
atom         8.5610500000       10.9584000000        2.0017800000 H         0.0000000000         0.0000000000       -74.4164664372      -56.1062151101      -71.8320094851
atom         5.6759500000       11.8773000000        2.4690900000 H         0.0000000000         0.0000000000        55.2872250912      -75.3114504103       71.8855803848
atom         8.3259000000        9.5596600000        0.9085900000 H         0.0000000000         0.0000000000       -47.6846014251       92.9577983959       50.6396466466
atom         7.0514000000       11.6094000000        3.5946300000 H         0.0000000000         0.0000000000       -93.2232313252      -45.1161655007      -54.2572999964
atom         4.7612800000        8.9454500000        2.0077600000 H         0.0000000000         0.0000000000        73.5001745204       57.6996201461      -71.4486236139
atom         4.9702500000       10.3529000000        0.9233900000 H         0.0000000000         0.0000000000        49.5492050439      -92.2408328178       49.8738723529
atom         7.6377700000        8.0578000000        2.4895200000 H         0.0000000000         0.0000000000       -54.8945061909       76.1680836189       71.2102370981
atom         6.2708500000        8.3419400000        3.6220800000 H         0.0000000000         0.0000000000        92.5786004459       44.1942279919      -55.7338594588
atom         1.8982300000        2.2900100000        7.9697400000 H         0.0000000000         0.0000000000       -73.5157150125       57.7068136656       71.4206918498
atom        12.3319000000        1.4027800000        7.4873100000 H         0.0000000000         0.0000000000        54.9255222265       76.1601195220      -71.2142671592
atom         1.6891200000        3.6973700000        9.0541500000 H         0.0000000000         0.0000000000       -49.5400676508      -92.2155554769      -49.9008548271
atom         0.3956500000        1.6880100000       13.0374000000 H         0.0000000000         0.0000000000       -93.2059702086       45.1914831207       54.2422644948
atom        11.4089000000        4.3040900000        7.9744600000 H         0.0000000000         0.0000000000        74.3853200789      -56.1562055306       71.8429002372
atom        11.6431000000        2.9050000000        9.0674400000 H         0.0000000000         0.0000000000        47.7533966232       92.9638299228      -50.6080944464
atom         0.9847600000        5.2218100000        7.5078200000 H         0.0000000000         0.0000000000       -55.3186772671      -75.3061531533      -71.8750728399
atom        12.9257000000        4.9560800000       13.0100000000 H         0.0000000000         0.0000000000        92.5806926881      -44.2223164023       55.7145662465
atom         4.6305600000        2.5762100000       11.0492000000 H         0.0000000000         0.0000000000        83.7559312580       45.5763271773       69.7696557981
atom         7.4329300000        1.3150400000       10.5247000000 H         0.0000000000         0.0000000000       -48.1860076447       79.8226305882      -72.0427267737
atom         5.0975800000        3.9419300000       12.1264000000 H         0.0000000000         0.0000000000        30.2059507636     -102.9316651439      -51.7405809805
atom         6.0499400000        1.7332900000        9.4441700000 H         0.0000000000         0.0000000000       101.8769701974       32.2011339215       48.1315687335
atom         8.6857500000        4.0512100000       11.0478000000 H         0.0000000000         0.0000000000       -83.7863181813      -45.2710273415       69.8309321962
atom         8.2162200000        2.6889800000       12.1288000000 H         0.0000000000         0.0000000000       -29.8807642021      102.9351501209      -51.8065058930
atom         5.8848000000        5.3132900000       10.5220000000 H         0.0000000000         0.0000000000        48.0672805638      -80.1402044714      -71.9413468510
atom         7.2664500000        4.8941000000        9.4412700000 H         0.0000000000         0.0000000000      -101.7892877202      -32.4562432091       48.3233261096
atom        11.2829000000       10.7060000000       12.2389000000 H         0.0000000000         0.0000000000        83.7974264835      -45.2730151133      -69.8021094671
atom         0.7734600000       11.9684000000       12.7655000000 H         0.0000000000         0.0000000000       -48.0534297837      -80.1365283135       71.9208473953
atom        11.7529000000        9.3437900000       11.1581000000 H         0.0000000000         0.0000000000        29.8310141793      102.9336431447       51.7807053030
atom        12.7040000000       11.5648000000        7.1871000000 H         0.0000000000         0.0000000000       101.9147837028      -32.1668477585      -48.0636965959
atom         2.0284300000        9.2320800000       12.2383000000 H         0.0000000000         0.0000000000       -83.7510533728       45.5378997650      -69.7959366636
atom         1.5611400000       10.5976000000       11.1609000000 H         0.0000000000         0.0000000000       -30.1764887012     -102.9451031757       51.7493810748
atom        12.5361000000        7.9699000000       12.7621000000 H         0.0000000000         0.0000000000        48.1726959608       79.8204724518       72.0592512058
atom         0.6120200000        8.4042800000        7.1909600000 H         0.0000000000         0.0000000000      -101.8205180884       32.4181656310      -48.3155960242
atom         8.5522600000       11.0076000000        8.6628000000 H         0.0000000000         0.0000000000       -73.4826422120      -57.7308077050      -71.4471523035
atom         5.6757700000       11.8951000000        9.1446600000 H         0.0000000000         0.0000000000        54.8978528320      -76.1862736137       71.2037848036
atom         8.3435700000        9.5998200000        7.5788000000 H         0.0000000000         0.0000000000       -49.5612176979       92.2518970090       49.8373522726
atom         7.0426400000       11.6108000000       10.2773000000 H         0.0000000000         0.0000000000       -92.5721961884      -44.1899778262      -55.7630160807
atom         4.7526100000        8.9944000000        8.6565500000 H         0.0000000000         0.0000000000        74.4218682345       56.1231877920      -71.8228444424
atom         4.9877400000       10.3934000000        7.5636800000 H         0.0000000000         0.0000000000        47.6813819834      -92.9729094411       50.6117188085
atom         7.6375300000        8.0755100000        9.1239800000 H         0.0000000000         0.0000000000       -55.2891051052       75.3217715306       71.8941743057
atom         6.2618300000        8.3433100000       10.2493000000 H         0.0000000000         0.0000000000        93.2605867399       45.1395222169      -54.2351092201
atom         1.7334300000        1.2958100000        3.6694000000 N         0.0000000000         0.0000000000        57.5545072821      -22.8345894308       39.9521999500
atom        11.2874000000        1.6569200000        5.1302200000 N         0.0000000000         0.0000000000       -20.1684776106      -50.7621163180      -37.8215334292
atom        11.5874000000        5.3635900000        3.6811400000 N         0.0000000000         0.0000000000       -57.1072336148       21.6113217270       41.4189320946
atom         2.0211100000        5.0031000000        5.1475000000 N         0.0000000000         0.0000000000        20.1666808737       51.4192203473      -37.3658460072
atom         4.7938300000        1.3949400000        0.0206400000 N         0.0000000000         0.0000000000       -58.1632583734      -25.4988188538       29.6003036408
atom         8.6484100000        1.4820500000        1.6310000000 N         0.0000000000         0.0000000000        28.5614320549      -50.1714932651      -25.2143441104
atom         8.5161100000        5.2518300000        0.0063400000 N         0.0000000000         0.0000000000        58.0558531215       25.6025976909       29.0211585840
atom         4.6679500000        5.1852300000        1.6296700000 N         0.0000000000         0.0000000000       -28.9495733924       50.1340914189      -24.9018480394
atom        11.4479000000       11.9026000000        3.3018900000 N         0.0000000000         0.0000000000       -58.1771870630       25.5074909215      -29.5710084426
atom         1.9926900000       11.8163000000        1.6909100000 N         0.0000000000         0.0000000000        28.6004980190       50.1047343744       25.2158221842
atom         1.8610100000        8.0465000000        3.3154500000 N         0.0000000000         0.0000000000        58.0403046588      -25.6361858641      -29.0192201022
atom        11.3224000000        8.1117800000        1.6925200000 N         0.0000000000         0.0000000000       -28.9837209307      -50.1690236331       24.8976405644
atom         8.3829800000       12.0180000000        6.2961000000 N         0.0000000000         0.0000000000        57.1547541907       21.5657369597      -41.3602569068
atom         4.6387100000       11.6589000000        4.8289200000 N         0.0000000000         0.0000000000       -20.2052791463       51.3701844473       37.3522970001
atom         4.9258100000        7.9508300000        6.3072100000 N         0.0000000000         0.0000000000       -57.5454664586      -22.8510141943      -39.9487339615
atom         8.6821900000        8.3121300000        4.8468700000 N         0.0000000000         0.0000000000        20.1382006468      -50.7401626520       37.8409709167
atom         1.7273500000        1.2788100000       10.3360000000 N         0.0000000000         0.0000000000        57.1001959844      -21.5857136863       41.4031321189
atom        11.2935000000        1.6395500000       11.8026000000 N         0.0000000000         0.0000000000       -20.1775949934      -51.4042578135      -37.3987512804
atom        11.5814000000        5.3468800000       10.3244000000 N         0.0000000000         0.0000000000       -57.5234420995       22.8402683317       40.0077937037
atom         2.0273000000        4.9857700000       11.7851000000 N         0.0000000000         0.0000000000        20.1710457522       50.7756802477      -37.7541609145
atom         4.7982000000        1.3914800000        6.6615200000 N         0.0000000000         0.0000000000       -58.0730236747      -25.6298019484       28.9924488404
atom         8.6469300000        1.4574900000        8.2845200000 N         0.0000000000         0.0000000000        28.9284504261      -50.1605965036      -24.9170603619
atom         8.5209000000        5.2481900000        6.6758100000 N         0.0000000000         0.0000000000        58.1701517986       25.4980307749       29.5927288301
atom         4.6660600000        5.1614800000        8.2861500000 N         0.0000000000         0.0000000000       -28.5593321491       50.1641161371      -25.2106249759
atom        11.4530000000       11.9067000000        9.9704600000 N         0.0000000000         0.0000000000       -58.0978977008       25.5676635151      -29.0296137889
atom         1.9911200000       11.8414000000        8.3473700000 N         0.0000000000         0.0000000000        28.9528454357       50.1857755718       24.8631262804
atom         1.8659300000        8.0504100000        9.9569300000 N         0.0000000000         0.0000000000        58.1613860473      -25.4789728513      -29.6020704808
atom        11.3211000000        8.1367400000        8.3459700000 N         0.0000000000         0.0000000000       -28.5788900727      -50.1755008100       25.2032300849
atom         8.3879300000       12.0020000000       12.9622000000 N         0.0000000000         0.0000000000        57.5242237678       22.8194628456      -39.9744074707
atom         4.6314500000       11.6406000000       11.5019000000 N         0.0000000000         0.0000000000       -20.1216537685       50.7219279076       37.8633748184
atom         4.9311800000        7.9344700000       12.9512000000 N         0.0000000000         0.0000000000       -57.1157680277      -21.6061335294      -41.3204228010
atom         8.6750100000        8.2938400000       11.4837000000 N         0.0000000000         0.0000000000        20.2086912103      -51.4101931722       37.2971414912
atom         0.6748700000        2.0103800000        2.9990800000 O         0.0000000000         0.0000000000       165.5919272003      -27.4270922548       -0.0887344253
atom        11.9346000000        2.6849200000        5.8683700000 O         0.0000000000         0.0000000000       -18.6497515301     -171.0340056386      -18.2743076295
atom         1.3091000000        0.5272600000        4.5155900000 O         0.0000000000         0.0000000000       104.6349782621      195.5562625789     -218.3367257924
atom        10.5262000000        2.0969600000        4.2839500000 O         0.0000000000         0.0000000000       191.8626043843     -107.7436008969      213.6961322503
atom         2.8777300000        1.5611300000        3.3492200000 O         0.0000000000         0.0000000000      -296.0724383215      -69.0007858114       78.1184550307
atom        11.5742000000        0.5012800000        5.3956900000 O         0.0000000000         0.0000000000       -72.1490708303      293.8000641645      -67.2581390046
atom        12.6423000000        4.6527100000        3.0019500000 O         0.0000000000         0.0000000000      -165.4363143851       28.4805286385        0.2943738136
atom         1.3710600000        3.9631100000        5.8676900000 O         0.0000000000         0.0000000000        19.4498749891      171.2705988266      -14.5070711668
atom        12.0165000000        6.1213100000        4.5349300000 O         0.0000000000         0.0000000000      -105.7830045127     -192.5364173853     -220.2543556377
atom        10.4413000000        5.1039600000        3.3630900000 O         0.0000000000         0.0000000000       296.5934852728       67.6270350770       77.2531272016
atom         2.7808700000        4.5760600000        4.2930400000 O         0.0000000000         0.0000000000      -191.6165061056      104.5518665052      215.9075416534
atom         1.7366000000        6.1543300000        5.4331300000 O         0.0000000000         0.0000000000        71.6480716575     -292.9267455743      -72.4558823097
atom         5.8700500000        2.0909300000        6.0351300000 O         0.0000000000         0.0000000000      -166.2777726912      -23.2982446995        1.3706816377
atom         7.8901400000        2.5458600000        2.2118100000 O         0.0000000000         0.0000000000        30.9939846699     -164.9762045499        3.7873553499
atom         5.1677300000        0.6836000000        0.9393000000 O         0.0000000000         0.0000000000       -89.0336406338      178.9745891392     -235.0147155645
atom         9.3600800000        1.8709300000        0.7188900000 O         0.0000000000         0.0000000000      -177.7156919066      -95.9768553657      228.9743779342
atom         3.6732700000        1.5816100000        6.2361900000 O         0.0000000000         0.0000000000       286.4076401048      -46.6714818290      106.1447605281
atom         8.4981500000        0.3614700000        2.0869400000 O         0.0000000000         0.0000000000        37.0119829123      283.7163656901     -118.5458788198
atom         7.4452900000        4.5605400000        6.0416100000 O         0.0000000000         0.0000000000       166.5627893595       22.2891463022        1.5859515429
atom         5.4230300000        4.1175800000        2.2104900000 O         0.0000000000         0.0000000000       -30.2104136940      164.6848293135        4.0499724573
atom         8.1395900000        5.9622200000        0.9248400000 O         0.0000000000         0.0000000000        89.6124106670     -178.5026099584     -234.8581104342
atom         9.6463800000        5.0484600000        6.2557200000 O         0.0000000000         0.0000000000      -286.6274441404       48.9960587228      104.5775846834
atom         3.9648100000        4.8019000000        0.7083600000 O         0.0000000000         0.0000000000       175.8331192826       94.8006454489      231.6115193570
atom         4.8115900000        6.3022400000        2.0962500000 O         0.0000000000         0.0000000000       -35.2692710429     -282.7610164671     -121.4479994415
atom        12.5237000000       11.2152000000        3.9359500000 O         0.0000000000         0.0000000000      -166.5643911811       22.2349676841       -1.5969126353
atom         1.2342200000       10.7524000000        1.1104200000 O         0.0000000000         0.0000000000        30.9572135025      165.0021579544       -3.8220521236
atom        11.8215000000       12.6143000000        2.3834100000 O         0.0000000000         0.0000000000       -88.9501299201     -179.0549499487      234.9536068853
atom         2.7045300000       11.4274000000        2.6029100000 O         0.0000000000         0.0000000000      -177.7631823272       96.0203450048     -228.9605411310
atom        10.3225000000       11.7027000000        3.7221500000 O         0.0000000000         0.0000000000       286.5885825037       49.0297795604     -104.6114211308
atom         1.8424400000       12.9368000000        1.2348300000 O         0.0000000000         0.0000000000        37.0123607032     -283.7186045734      118.5935266439
atom         0.7893600000        8.7457000000        3.9422600000 O         0.0000000000         0.0000000000       166.2777477391      -23.2566750222       -1.4559349965
atom        12.0767000000        9.1799400000        1.1115800000 O         0.0000000000         0.0000000000       -30.0735963811     -164.7122570573       -4.0208116773
atom         1.4844300000        7.3360100000        2.3970500000 O         0.0000000000         0.0000000000        89.6335674076      178.5447900667      234.8464017063
atom         2.9860600000        8.2365700000        3.7404800000 O         0.0000000000         0.0000000000      -286.4336318270      -46.6551223211     -106.0583371604
atom        10.6194000000        8.4945300000        2.6142400000 O         0.0000000000         0.0000000000       175.8139865940      -94.6597568012     -231.7287011196
atom        11.4663000000        6.9949600000        1.2255600000 O         0.0000000000         0.0000000000       -35.3257258919      282.7258737277      121.5615086651
atom         7.3295300000       11.2875000000        0.3227600000 O         0.0000000000         0.0000000000       165.5917071200       27.3821778279        0.0199436209
atom         5.2891300000       10.6187000000        4.1092500000 O         0.0000000000         0.0000000000       -19.4678740433      171.2820995352       14.4216540668