begin
comment generated by PY
lattice        13.3100000000         0.0000000000         0.0000000000
lattice         0.0000000000        13.3100000000         0.0000000000
lattice         0.0000000000         0.0000000000        13.3100000000
atom         0.0275500000        3.2417800000        1.1535700000 C         0.0000000000         0.0000000000        -2.4233176878        1.2835039813       -5.8659807795
atom         1.2763000000        2.8861800000        1.9628200000 C         0.0000000000         0.0000000000        -4.9489319667        3.3855421142       -4.1077062357
atom        12.9494000000        2.0568800000        0.2462500000 C         0.0000000000         0.0000000000         4.8707797695        8.1763709637        2.6153659317
atom        12.1588000000        3.5463900000        2.0814300000 C         0.0000000000         0.0000000000        11.3254732791       -3.8162209089       -2.9373834241
atom         0.3190000000        4.4862200000        0.2940700000 C         0.0000000000         0.0000000000        -5.9475459378       -8.4887260865        4.3859086870
atom         6.7246000000        3.2690300000        4.3598900000 C         0.0000000000         0.0000000000         0.8376513460        1.1992407388        3.6817779140
atom         5.5527800000        2.7590900000        5.2212400000 C         0.0000000000         0.0000000000        12.1130371148        0.8894914579       -9.9118847465
atom         7.1475600000        2.1090200000        3.4373200000 C         0.0000000000         0.0000000000        -6.9602960248        5.4066146631        3.0216236060
atom         7.9136400000        3.6494000000        5.2442100000 C         0.0000000000         0.0000000000        -5.0621823180       -4.1249555257       -6.3220492375
atom         6.2685700000        4.4924300000        3.5511500000 C         0.0000000000         0.0000000000         3.1457124149       -6.7324808710        6.6380709875
atom        13.2672000000       10.0520000000        5.5167200000 C         0.0000000000         0.0000000000         3.0778452221       -2.8569482327        6.3951972958
atom        12.0122000000       10.3594000000        4.7079000000 C         0.0000000000         0.0000000000         2.3755823535       -5.1113474063        5.4323732952
atom         0.3100700000       11.2572000000        6.4116800000 C         0.0000000000         0.0000000000        -5.6009228406       -8.2181797373       -1.1850815623
atom         1.1390400000        9.7730200000        4.5873600000 C         0.0000000000         0.0000000000       -10.8056654664        4.3267353208        1.2750638207
atom        12.9998000000        8.8170200000        6.3971300000 C         0.0000000000         0.0000000000         7.7014850985        9.4039069949       -4.7762776437
atom         6.6492600000       10.0362000000        2.3003800000 C         0.0000000000         0.0000000000        -1.4348964790        2.2165568144        0.7129399023
atom         7.7937400000       10.5361000000        1.4125400000 C         0.0000000000         0.0000000000        -4.1858814935       -3.5375341861        9.3281530947
atom         6.2280900000       11.1873000000        3.2329400000 C         0.0000000000         0.0000000000         2.8376465540       -9.0333931700       -4.8337214688
atom         5.4333500000        9.6352700000        1.4574100000 C         0.0000000000         0.0000000000         5.5372065465        2.6951323673        5.2105538839
atom         7.1417200000        8.8349000000        3.1200200000 C         0.0000000000         0.0000000000        -4.5978812443        3.8557466882       -9.3546035433
atom         0.0364700000        3.2972200000        7.7767000000 C         0.0000000000         0.0000000000        -3.8572917449        0.4037210140       -2.7747143185
atom         1.2279100000        2.9675900000        8.6713600000 C         0.0000000000         0.0000000000        -6.4808211106        4.3842483275        0.0237062434
atom        13.0186000000        2.0903200000        6.8752900000 C         0.0000000000         0.0000000000         3.9944789450        9.0649399997        2.9272367830
atom        12.1147000000        3.6163700000        8.6333700000 C         0.0000000000         0.0000000000        10.4868533901       -4.4546291200       -3.5320918968
atom         0.3945200000        4.5116600000        6.9037000000 C         0.0000000000         0.0000000000        -8.6909670926       -6.1452901370        6.1582962861
atom         6.5761900000        3.4261300000       11.1187000000 C         0.0000000000         0.0000000000        -0.7764717121       -7.0860913142       -1.3985991764
atom         5.4243700000        3.1081600000       12.0847000000 C         0.0000000000         0.0000000000        12.4030004456        1.9196983798       -1.2965562514
atom         6.9059600000        2.1826800000       10.2703000000 C         0.0000000000         0.0000000000        -3.4339923256       10.7231087045        3.0441076403
atom         7.8307200000        3.8532700000       11.8904000000 C         0.0000000000         0.0000000000        -5.7071858459       -4.0996119834       -6.8062054430
atom         6.0990500000        4.5528600000       10.1976000000 C         0.0000000000         0.0000000000         9.6061018799        1.6142153003        8.2445610042
atom         0.0077600000       10.0093000000       12.1577000000 C         0.0000000000         0.0000000000        -0.0378192987       -2.2258732758        2.3505616589
atom        12.0927000000       10.4184000000       11.3285000000 C         0.0000000000         0.0000000000         9.8680005237       -1.1480463222        4.6142772939
atom         0.4614600000       11.1798000000       13.0437000000 C         0.0000000000         0.0000000000        -2.2753842724       -3.7965733220       -6.8234316724
atom         1.1935500000        9.6409300000       11.2525000000 C         0.0000000000         0.0000000000        -8.8231501538        4.1249324651        4.9269552644
atom        12.9388000000        8.7965200000       13.0241000000 C         0.0000000000         0.0000000000         5.5596675202        7.3377280142       -5.3869670762
atom         6.6645400000        9.9009100000        8.8546800000 C         0.0000000000         0.0000000000         0.5822327162        2.9414882017        2.3168240771
atom         7.8597900000       10.1558000000        7.9273100000 C         0.0000000000         0.0000000000       -11.2472519003       -6.7946751690        1.9578866473
atom         6.4003900000       11.1592000000        9.6980700000 C         0.0000000000         0.0000000000         4.7402340072      -12.6120673738       -3.5046267841
atom         5.4207800000        9.5975000000        8.0154300000 C         0.0000000000         0.0000000000         7.8608565458        5.6743706860        2.9037611451
atom         6.9842800000        8.7147500000        9.7810900000 C         0.0000000000         0.0000000000        -5.6606957811        7.5139567221       -5.1922207482
atom         2.0333000000        2.4271900000        1.3243200000 H         0.0000000000         0.0000000000         3.5136203979       -3.0580362113       -1.8729085279
atom        12.4658000000        1.2673900000        0.8216200000 H         0.0000000000         0.0000000000        -2.9596599135       -5.4787941784        1.4905646419
atom         1.6780200000        3.8052900000        2.4037700000 H         0.0000000000         0.0000000000         3.4557384223       -0.7114409667        3.1671126034
atom         0.6474200000        1.7213100000        6.4526900000 H         0.0000000000         0.0000000000        -1.8491100423       -5.7816714159       -4.6895469226
atom        11.3424000000        4.0108300000        1.5303800000 H         0.0000000000         0.0000000000        -5.2514863566        1.5704463802       -2.4081669078
atom        11.8437000000        2.5905000000        2.5175000000 H         0.0000000000         0.0000000000        -5.5761788726        3.5604333103        5.2844860008
atom         0.7916200000        5.2661800000        0.8919800000 H         0.0000000000         0.0000000000         3.2086907715        3.5445445927        1.6494748782
atom        12.7835000000        4.8879900000        6.4439400000 H         0.0000000000         0.0000000000         2.3768968047        3.7312658500       -4.0519688912
atom         4.6828100000        2.6551600000        4.5675700000 H         0.0000000000         0.0000000000        -7.2834434841       -5.8824921319        3.7105805384
atom         7.6621500000        1.3385600000        4.0179900000 H         0.0000000000         0.0000000000         3.6014810858       -1.2728500081       -1.6860258468
atom         5.3437800000        3.4123000000        6.0685900000 H         0.0000000000         0.0000000000        -1.1089125723        4.7366365617        0.2731983123
atom         6.2216100000        1.6918700000        3.0110600000 H         0.0000000000         0.0000000000         6.5148354189       -3.0235145710       -6.3733128357
atom         8.6836500000        4.1389100000        4.6430800000 H         0.0000000000         0.0000000000         3.0185565531        3.7671711233       -0.8665231521
atom         8.3396700000        2.7437300000        5.6950700000 H         0.0000000000         0.0000000000         0.3031309036        0.8194565736        2.2891744801
atom         5.8302400000        5.2396900000        4.2172600000 H         0.0000000000         0.0000000000        -2.7110902665        4.6833436352        0.5463966246
atom         7.1259700000        4.9072100000        3.0107300000 H         0.0000000000         0.0000000000        -0.7222102426        3.9098006127       -1.7788445526
atom        11.2368000000       10.7777000000        5.3513700000 H         0.0000000000         0.0000000000        -3.8964485554        3.6783418923        1.8019281611
atom         0.8067300000       12.0401000000        5.8400700000 H         0.0000000000         0.0000000000         3.0407638609        5.0204427261       -1.6270139044
atom        11.6445000000        9.4287500000        4.2612300000 H         0.0000000000         0.0000000000        -2.7713705390        0.7898007089       -3.2353948861
atom        12.9658000000       11.4800000000        0.4148800000 H         0.0000000000         0.0000000000         0.2041319710        2.2218838010        0.4830954203
atom         1.9614400000        9.2998900000        5.1222000000 H         0.0000000000         0.0000000000         4.7000625325       -1.1786015483        2.1182035771
atom         1.4432400000       10.7442000000        4.1771200000 H         0.0000000000         0.0000000000         6.7159003370       -3.4051205195       -5.7819712031
atom        12.5127000000        8.0264800000        5.8276800000 H         0.0000000000         0.0000000000        -3.0177494340       -4.4522538836       -1.8868601594
atom         0.5416100000        8.3945200000        0.1721800000 H         0.0000000000         0.0000000000        -3.3623893240       -2.2901430231        4.4774360020
atom         8.6250300000       10.8704000000        2.0367900000 H         0.0000000000         0.0000000000         3.8227701045        3.3021090515       -0.8074420281
atom         5.7732400000       11.9869000000        2.6441700000 H         0.0000000000         0.0000000000        -3.7334796626        3.1965609232        2.0953044529
atom         8.1305700000        9.7456300000        0.7339000000 H         0.0000000000         0.0000000000         1.0798562818       -2.0632733517       -0.8208171459
atom         7.1278000000       11.5420000000        3.7539700000 H         0.0000000000         0.0000000000        -5.0731591388        4.0908259146        3.9309932563
atom         4.6794500000        9.1677700000        2.0971500000 H         0.0000000000         0.0000000000        -2.6350827002       -4.4446439028       -0.4059348267
atom         5.0001500000       10.5289000000        0.9876900000 H         0.0000000000         0.0000000000         0.2218885930       -1.9378009100       -1.6282822346
atom         7.5146500000        8.0548600000        2.4502700000 H         0.0000000000         0.0000000000         2.6385417824       -3.9807348584       -0.1578263906
atom         6.3248000000        8.4481400000        3.7410500000 H         0.0000000000         0.0000000000         0.1747067117       -2.5399810002        0.7326105498
atom         2.0275700000        2.5053600000        8.0994200000 H         0.0000000000         0.0000000000         6.3997863449       -4.9296302880       -3.6352186675
atom        12.5081000000        1.3086000000        7.4396800000 H         0.0000000000         0.0000000000        -2.1323166325       -4.1226033498        0.4853784146
atom         1.6025600000        3.8921700000        9.1277700000 H         0.0000000000         0.0000000000         1.5969198893       -1.9139563034        1.8492484056
atom         0.5512800000        1.6878000000       13.0765000000 H         0.0000000000         0.0000000000        -1.6128547280       -5.2253126346       -3.7314503344
atom        11.3464000000        4.1152400000        8.0443400000 H         0.0000000000         0.0000000000        -4.4664591812        2.8125797383       -1.8965455896
atom        11.7385000000        2.6661800000        9.0356700000 H         0.0000000000         0.0000000000        -4.6984713547        3.5159264527        4.0801258203
atom         0.8623600000        5.2980400000        7.4950300000 H         0.0000000000         0.0000000000         4.0394008925        3.7100962669        2.0277831683
atom        12.6724000000        4.8459500000       13.1987000000 H         0.0000000000         0.0000000000         4.5195906838        3.8321557475       -3.9399868701
atom         4.6297900000        2.5892900000       11.5476000000 H         0.0000000000         0.0000000000        -5.0196817280       -1.7583898465        1.4229741756
atom         7.3850700000        1.4120300000       10.8731000000 H         0.0000000000         0.0000000000         3.2315898957       -3.0059654939        1.5109501663
atom         5.0716300000        4.0694600000       12.4836000000 H         0.0000000000         0.0000000000        -5.0889325537       -5.2337527952        4.0536523112
atom         5.9634200000        1.8121000000        9.8413400000 H         0.0000000000         0.0000000000         4.0795723672       -4.0702097847       -5.3197686393
atom         8.5183200000        4.3900800000       11.2330000000 H         0.0000000000         0.0000000000         3.6318979486        3.9785210458       -0.5437216010
atom         8.3298400000        2.9645700000       12.2918000000 H         0.0000000000         0.0000000000         1.8678813284       -0.4546617646        1.5280610929
atom         5.7188500000        5.3891000000       10.7880000000 H         0.0000000000         0.0000000000        -2.6777447141        4.9479864842        1.8932248707
atom         6.9293300000        4.8911000000        9.5693600000 H         0.0000000000         0.0000000000         0.8723344102        2.6805811615       -1.6333324946
atom        11.3479000000       10.9097000000       11.9565000000 H         0.0000000000         0.0000000000        -4.0926246373        3.8041141212        0.8351146857
atom         0.7743700000       12.0194000000       12.4166000000 H         0.0000000000         0.0000000000         1.0907639210        4.2222710383        0.2669258432
atom        11.6594000000        9.5287000000       10.8605000000 H         0.0000000000         0.0000000000        -2.5764397266       -0.3862411187       -1.5916159632
atom        12.6823000000       11.6283000000        6.8404500000 H         0.0000000000         0.0000000000         3.2974277602        5.2810961002        4.6901234363
atom         1.9789500000        9.1703100000       11.8483000000 H         0.0000000000         0.0000000000         2.7050945240       -3.8187345086       -1.0965059974
atom         1.5716800000       10.5657000000       10.7948000000 H         0.0000000000         0.0000000000         2.9272367830       -3.4529942171       -3.0720800851
atom        12.4614000000        8.0281000000       12.4139000000 H         0.0000000000         0.0000000000        -3.1313687540       -3.8250069777       -1.6915603783
atom         0.6608700000        8.4754900000        6.7797400000 H         0.0000000000         0.0000000000        -4.1680787504       -5.2817417956        4.6495138113
atom         8.6651500000       10.6590000000        8.4550700000 H         0.0000000000         0.0000000000         6.7376003127        1.4283934044        2.2274413930
atom         5.8995100000       11.9148000000        9.0987800000 H         0.0000000000         0.0000000000        -2.0685772778        6.2724921198       -2.4719523836
atom         8.1803200000        9.1714600000        7.5629900000 H         0.0000000000         0.0000000000         6.6002978098        3.9817956436       -5.7503321312
atom         7.3718600000       11.5225000000       10.0587000000 H         0.0000000000         0.0000000000        -4.0059630979        5.4158619428        6.1469504965
atom         4.6505900000        9.1218300000        8.6181800000 H         0.0000000000         0.0000000000        -5.4585008961       -3.6467028204        2.5228239525
atom         5.0513100000       10.5461000000        7.6082300000 H         0.0000000000         0.0000000000        -4.1039012453       -2.3795718283       -2.9849342741
atom         7.4721100000        7.9076900000        9.2343000000 H         0.0000000000         0.0000000000         1.6448397081       -5.1843571013       -1.8385713719
atom         6.0382000000        8.3788000000       10.2207000000 H         0.0000000000         0.0000000000         2.5555468701       -5.6399874090        4.3497497477
atom         2.0014200000        1.3894700000        3.6766100000 N         0.0000000000         0.0000000000        -3.1829551999        2.0591224531       -0.6593933099
atom        11.3720000000        1.6011100000        5.1656300000 N         0.0000000000         0.0000000000         7.9761362253       -1.0139953566        2.1946723543
atom        11.5933000000        5.2656600000        3.6665700000 N         0.0000000000         0.0000000000        -4.5375317901       -2.8106887734       -2.9919677413
atom         2.0056000000        5.0346500000        5.2041100000 N         0.0000000000         0.0000000000        -5.1039219099        1.7910435825       -0.0575591278
atom         4.9728100000        1.3198700000        0.3451600000 N         0.0000000000         0.0000000000        -3.7468547805        2.4064604273       -2.7349579337
atom         8.8137000000        1.6177900000        1.7543000000 N         0.0000000000         0.0000000000        -8.1632033908       -5.2682744355        3.0310553702
atom         8.5073300000        5.2829400000        0.3554400000 N         0.0000000000         0.0000000000        -1.8303618168       -1.3631781746       -1.7930729107
atom         4.6403200000        5.0362400000        1.8793300000 N         0.0000000000         0.0000000000         5.9127245103        2.9107715517        3.6998112625
atom        11.2431000000       11.8660000000        3.0331800000 N         0.0000000000         0.0000000000         0.9136127911       -2.5136689150        2.8435961754
atom         2.0364200000       11.6203000000        1.4705200000 N         0.0000000000         0.0000000000        -5.1790301147        2.0591224531       -5.7119363188
atom         1.7077900000        8.0634000000        2.9921400000 N         0.0000000000         0.0000000000         6.9777989808        2.0442253391        2.1365136522
atom        11.3249000000        8.2314000000        1.4076300000 N         0.0000000000         0.0000000000         5.9702144565       -0.4370896270       -0.8982314056
atom         8.3865200000       11.9236000000        6.3722900000 N         0.0000000000         0.0000000000         5.3097373009       -1.3792513766        0.1944926619
atom         4.4486700000       11.5803000000        4.8353400000 N         0.0000000000         0.0000000000         3.6481556350        4.6536416494       -5.3883507090
atom         4.7266700000        8.0300400000        6.3446200000 N         0.0000000000         0.0000000000         1.8059176359        0.1784886416        1.1997480709
atom         8.7245300000        8.3217300000        4.8190300000 N         0.0000000000         0.0000000000        -6.7035398833       -1.8681119339       -5.4186292086
atom         1.8563400000        1.4564500000       10.3998000000 N         0.0000000000         0.0000000000        -1.9724147926        2.3634755658       -1.1357089290
atom        11.3234000000        1.5882100000       11.8282000000 N         0.0000000000         0.0000000000         6.7401369730       -0.4370204454        0.0446913420
atom        11.5122000000        5.2319400000       10.3034000000 N         0.0000000000         0.0000000000        -1.9306982612       -2.8126027988       -2.2796043526
atom         1.9187900000        5.1351300000       11.9212000000 N         0.0000000000         0.0000000000        -4.8254196715        0.7294973758       -0.0289871089
atom         5.3322300000        1.0136000000        6.8721800000 N         0.0000000000         0.0000000000         5.5504663616        5.1380976420        7.2120941486
atom         8.5725000000        1.5874500000        8.6099800000 N         0.0000000000         0.0000000000        -5.7047414278       -2.3128115418        1.3875992950
atom         8.5083200000        5.2059500000        6.9514200000 N         0.0000000000         0.0000000000         0.0255049661       -1.5048160605       -2.8605687387
atom         4.5414900000        4.9720300000        8.4693700000 N         0.0000000000         0.0000000000         7.7244764649        9.0771620902        6.0368133191
atom        11.5109000000       11.9179000000        9.5670000000 N         0.0000000000         0.0000000000         1.1748657396       -2.6295481687        5.2522473547
atom         1.9850900000       11.7742000000        8.0936200000 N         0.0000000000         0.0000000000        -5.6408637098        0.1884969195       -0.4489888698
atom         1.7548600000        8.0161600000        9.5810000000 N         0.0000000000         0.0000000000         1.7605344774        4.2906686237        5.3561812446
atom        11.3848000000        8.2208500000        8.0881200000 N         0.0000000000         0.0000000000         4.2823207053       -1.0555965853        1.7248136886
atom         8.1659200000       12.0736000000       12.9639000000 N         0.0000000000         0.0000000000         2.0160222889       -4.5794328059        6.8847727301
atom         4.7170300000       11.8312000000       11.2909000000 N         0.0000000000         0.0000000000         1.5724757084        4.1075909330        2.9844961237
atom         4.7913300000        8.1505800000       13.0147000000 N         0.0000000000         0.0000000000         3.1124360441        4.0693334839        4.1874496108
atom         8.6313600000        8.2018000000       11.4751000000 N         0.0000000000         0.0000000000        -6.2957371522       -3.2924236213       -0.6453724967
atom         0.8658400000        1.9823700000        3.0138500000 O         0.0000000000         0.0000000000         4.7187415764       -2.4308123660       -2.5902068738
atom        12.1609000000        2.6083500000        5.8211000000 O         0.0000000000         0.0000000000        -7.5417908035       -5.3397390738        4.5543429296
atom         1.6650000000        0.6840800000        4.6140000000 O         0.0000000000         0.0000000000         4.5922083495        0.3121475779       -3.1687499023
atom        10.5274000000        2.0911600000        4.4306800000 O         0.0000000000         0.0000000000         0.9085855917       -4.3945794530        0.4932190009
atom         3.1024200000        1.6727400000        3.2363700000 O         0.0000000000         0.0000000000        -0.7447865191       -4.4598408039        4.6771864689
atom        11.6568000000        0.4351100000        5.3908100000 O         0.0000000000         0.0000000000        -5.6025140184        2.6173030177       -2.9330711017
atom        12.6484000000        4.4371600000        3.1140400000 O         0.0000000000         0.0000000000        -8.4102049205        0.9168643284       -3.4992767370
atom         1.2960100000        4.0091900000        5.8967800000 O         0.0000000000         0.0000000000         6.1444138362        0.4754393184        1.4062091572
atom        12.0135000000        6.0085400000        4.5366100000 O         0.0000000000         0.0000000000        -3.1729699826        1.2577684097       -2.6082171618
atom        10.4709000000        5.1178800000        3.2097400000 O         0.0000000000         0.0000000000         3.8178351472        4.6886936824        8.7078935348
atom         2.8114200000        4.5703500000        4.4085900000 O         0.0000000000         0.0000000000        -0.2284147281        5.5950424009        1.0628145368
atom         1.7074400000        6.1873700000        5.4683100000 O         0.0000000000         0.0000000000         5.8080296223       -0.9496794882       -5.1476677694
atom         5.9988800000        1.4675900000        5.6905600000 O         0.0000000000         0.0000000000        -6.3248165033       -5.8336960123       -2.4826985990
atom         8.0101600000        2.6452800000        2.4029600000 O         0.0000000000         0.0000000000         1.4949230854       -8.5716518172        3.3038385926
atom         5.4623600000        0.5350800000        1.1404400000 O         0.0000000000         0.0000000000        -4.1623366740        5.4606685876       -3.5903659016
atom         9.4906900000        2.0845600000        0.8527100000 O         0.0000000000         0.0000000000         2.0602062989       -1.9740520915        2.3197527667
atom         4.7984600000        1.8769700000        7.5535900000 O         0.0000000000         0.0000000000        -7.2735966301      -11.1400895337        2.7543057335
atom         8.7058000000        0.4670900000        2.1519500000 O         0.0000000000         0.0000000000         0.6212050423       10.9506471318       -4.5263704849
atom         7.4193000000        4.5318000000        6.2760600000 O         0.0000000000         0.0000000000         5.9049300451        1.7295180404       -2.5730267655
atom         5.2826300000        4.0004500000        2.6134400000 O         0.0000000000         0.0000000000        -0.4760850137       -1.7188640672        1.5077216896
atom         8.1434100000        6.0171400000        1.2599300000 O         0.0000000000         0.0000000000         6.3157537079        0.1124893532       -1.5787251169
atom         9.6342200000        4.9269800000        6.5757500000 O         0.0000000000         0.0000000000        -0.2731291307        5.3840845077        6.5453906450
atom         3.8148400000        4.5958400000        1.0945100000 O         0.0000000000         0.0000000000        -2.9094340399        3.9314544673       -1.4894116145
atom         4.9963200000        6.1802400000        2.1110300000 O         0.0000000000         0.0000000000        -5.0880793134        0.9935175900       -4.9882732616
atom        12.3899000000       11.2834000000        3.6729000000 O         0.0000000000         0.0000000000        -1.1734821067        4.0701867241        1.1897859141
atom         1.5905200000       10.6789000000        0.4946200000 O         0.0000000000         0.0000000000        -3.7186978513        1.6160601441        2.7570268781
atom        11.5606000000       12.6350000000        2.1435800000 O         0.0000000000         0.0000000000        -4.6148999287        0.8651856403       -1.0218590035
atom         2.8906200000       11.1552000000        2.2051200000 O         0.0000000000         0.0000000000         1.5419666034        3.1327293263        3.1768672152
atom        10.1525000000       11.5139000000        3.4535500000 O         0.0000000000         0.0000000000         1.3681131319        7.2587686978       -5.6115076322
atom         1.5155300000       12.7259000000        1.4483000000 O         0.0000000000         0.0000000000         4.9748981437        0.0471818812        4.8727399160
atom         0.6620300000        8.9121800000        3.5202400000 O         0.0000000000         0.0000000000         7.1559417142       -0.0532006843        5.4972887379
atom        12.0235000000        9.2916800000        0.7232000000 O         0.0000000000         0.0000000000        -1.9318282281       -4.4919180262       -1.3119376370
atom         1.2905400000        7.3342900000        2.1088400000 O         0.0000000000         0.0000000000         2.9193270150       -1.8527074878        2.3312138591
atom         2.8236600000        8.1860400000        3.4714700000 O         0.0000000000         0.0000000000        -3.9347521257       -4.9491395116       -8.9827291460
atom        10.5599000000        8.6590700000        2.2591100000 O         0.0000000000         0.0000000000         0.8004777426       -3.1561588431       -3.5319996546
atom        11.5955000000        7.0909900000        1.0732800000 O         0.0000000000         0.0000000000        -4.4812871135        0.3324639207        5.3838769627
atom         7.2467400000       11.6285000000        0.6524100000 O         0.0000000000         0.0000000000        -0.2054003011       -2.1859093461       -5.6641087422
atom         5.2836100000       10.6163000000        4.1794000000 O         0.0000000000         0.0000000000         4.5642820258        3.0862853826       -2.1360524413