begin
comment generated by PY
lattice        11.4200000000         0.0000000000         0.0000000000
lattice         0.0000000000        10.5800000000         0.0000000000
lattice         0.0000000000         0.0000000000        13.1400000000
atom         6.9991500000        4.9838700000       11.4603000000 H         0.0000000000         0.0000000000        59.4130083532      121.7933805794       -7.0596136516
atom         7.9695600000        2.7782100000       11.7118000000 H         0.0000000000         0.0000000000        95.5816475041      -18.7701288650       84.8199454064
atom         3.7008800000        7.9499400000        1.3084900000 H         0.0000000000         0.0000000000       -90.0738357828       24.5676099808      -84.6618087464
atom         9.1757300000        7.7480300000        5.1414000000 H         0.0000000000         0.0000000000       -95.5613468655       18.7286281321       84.8480234102
atom         2.0244000000        2.5762900000        7.8783700000 H         0.0000000000         0.0000000000        90.0803777649      -24.5614138126      -84.6611915278
atom         3.4659400000        8.0685400000        8.0115300000 H         0.0000000000         0.0000000000       -95.5726897934      -18.7772625450      -84.8324057659
atom         7.7345500000        2.6602400000        5.2749100000 H         0.0000000000         0.0000000000        90.0765917904       24.5629112581       84.6690447681
atom         2.2598100000        2.4576800000        1.4416500000 H         0.0000000000         0.0000000000        95.5740889419       18.7285494896      -84.8452795122
atom         9.4112500000        7.8661200000       11.8449000000 H         0.0000000000         0.0000000000       -90.0838199357      -24.5693177387       84.6764796067
atom         8.2484100000        2.6624000000        0.3152400000 H         0.0000000000         0.0000000000        68.3616325714       -9.2553297438     -119.8913327739
atom         3.4042200000        7.9514900000       12.6930000000 H         0.0000000000         0.0000000000       -61.7790856892       25.7010350912      121.2205236265
atom         8.8973300000        7.8634400000        6.8849100000 H         0.0000000000         0.0000000000       -68.3931122782        9.2702355055     -119.8672091933
atom         2.3211700000        2.5745100000        6.1228300000 H         0.0000000000         0.0000000000        61.7706051309      -25.6720051243      121.2422361375
atom         3.1873200000        7.9528100000        6.2680800000 H         0.0000000000         0.0000000000       -68.3766739150       -9.2583219720      119.8796305508
atom         8.0312300000        2.6618200000        7.0304600000 H         0.0000000000         0.0000000000        61.7774635745       25.6940659095     -121.2330139285
atom         2.5384400000        2.5730000000       12.8381000000 H         0.0000000000         0.0000000000        68.3748692317        9.2782998101      119.8898126693
atom         9.1145800000        7.8642100000        0.4604800000 H         0.0000000000         0.0000000000       -61.7745852635      -25.6638818509     -121.2375884320
atom         9.8105200000        3.8116600000       10.2346000000 H         0.0000000000         0.0000000000        72.6165510582      -33.9045230551      105.7799727208
atom         1.7381900000        7.1307600000        2.9051300000 H         0.0000000000         0.0000000000       -64.1393604452       37.2129065052     -111.0300259638
atom         7.3347400000        6.7144900000        3.6644300000 H         0.0000000000         0.0000000000       -72.5911350225       33.8839366548      105.8035695277
atom         3.9866100000        3.3962100000        9.4749400000 H         0.0000000000         0.0000000000        64.1536063534      -37.2387986287     -111.0166799370
atom         1.6246600000        9.1017300000        9.4886300000 H         0.0000000000         0.0000000000       -72.5876365127      -33.8977788499     -105.7993173518
atom         9.6968500000        1.8407700000        3.6782600000 H         0.0000000000         0.0000000000        64.1512640641       37.2226304172      111.0136696490
atom         4.1010100000        1.4243500000        2.9188500000 H         0.0000000000         0.0000000000        72.5873962335       33.8836704535     -105.8071607055
atom         7.4492200000        8.6861300000       10.2485000000 H         0.0000000000         0.0000000000       -64.1611719162      -37.2379417696      111.0208013888
atom        11.3104000000        4.2646700000       11.0831000000 H         0.0000000000         0.0000000000      -102.3337869334      -95.1886343354        1.6776644277
atom         0.2155700000        6.8318800000        2.0230300000 H         0.0000000000         0.0000000000       115.5615134916       77.4855278870       -2.8501988967
atom         5.8350900000        6.2611700000        4.5131200000 H         0.0000000000         0.0000000000       102.3237460156       95.1980339096        1.6758291581
atom         5.5092800000        3.6951900000        8.5930600000 H         0.0000000000         0.0000000000      -115.5425950900      -77.5430952227       -2.8576614984
atom         0.1248900000        9.5547300000        8.6399300000 H         0.0000000000         0.0000000000       102.3495484516      -95.1782114877       -1.6712719726
atom        11.2196000000        1.5419300000        4.5601800000 H         0.0000000000         0.0000000000      -115.5649347305       77.4966506161        2.8537677521
atom         5.6007300000        0.9711700000        2.0701700000 H         0.0000000000         0.0000000000      -102.3385566351       95.1857464450       -1.6793865233
atom         5.9265500000        8.9852400000       11.1303000000 H         0.0000000000         0.0000000000       115.5259788414      -77.5585562208        2.8693213658
atom         9.5170500000        0.9157800000       10.2115000000 H         0.0000000000         0.0000000000        69.1644767210       17.1433244772      109.3147044704
atom         2.4603200000        9.9532400000        2.6764300000 H         0.0000000000         0.0000000000       -72.7986668189      -16.5872648069     -105.2578862751
atom         7.6278800000        9.6103200000        3.6418100000 H         0.0000000000         0.0000000000       -69.1357847160      -17.1460323536      109.3154007815
atom         3.2651800000        0.5729100000        9.2464900000 H         0.0000000000         0.0000000000        72.8044657545       16.6242887190     -105.2433517436
atom         1.9187100000        6.2064300000        9.5116100000 H         0.0000000000         0.0000000000       -69.1603961870       17.0971636919     -109.3151553934
atom         8.9750900000        4.6638500000        3.9070600000 H         0.0000000000         0.0000000000        72.8083017762      -16.6259956253      105.2452845721
atom         3.8074400000        4.3201400000        2.9413100000 H         0.0000000000         0.0000000000        69.1458181832      -17.1470444632     -109.3142392391
atom         8.1703700000        5.8628400000       10.4767000000 H         0.0000000000         0.0000000000       -72.7990113313       16.6210492913      105.2639950730
atom        10.7318000000        0.1364400000       11.2529000000 H         0.0000000000         0.0000000000       -73.5247693246      113.3538037219      -10.2049187899
atom         1.2894600000        0.2527100000        1.6928000000 H         0.0000000000         0.0000000000        59.3788369242     -121.8099214972        7.0653370716
atom         6.4132800000       10.3895000000        4.6834500000 H         0.0000000000         0.0000000000        73.5275836815     -113.3392441197      -10.2290668269
atom         4.4364200000       10.2739000000        8.2629200000 H         0.0000000000         0.0000000000       -59.4173639108      121.8074599304        7.0680096732
atom         0.7042000000        5.4264900000        8.4704100000 H         0.0000000000         0.0000000000        73.4948671958      113.3759336888       10.1792582176
atom        10.1463000000        5.5428500000        4.8907300000 H         0.0000000000         0.0000000000       -59.4205432862     -121.8002714257       -7.0838549428
atom         5.0220500000        5.0994100000        1.8996800000 H         0.0000000000         0.0000000000       -73.5239279810     -113.3536632299       10.2318950907
atom         9.7888100000        3.5990700000       12.3346000000 N         0.0000000000         0.0000000000        33.1387674772     -139.1416589619      -72.2501923938
atom         1.8541500000        7.2083100000        0.7856300000 N         0.0000000000         0.0000000000       -29.4349870894      143.8529431991       41.6242147422
atom         7.3567200000        6.9268200000        5.7645200000 N         0.0000000000         0.0000000000       -33.1335849331      139.1621199357      -72.2606305199
atom         3.8710200000        3.3181100000        7.3554500000 N         0.0000000000         0.0000000000        29.4289442557     -143.8701382086       41.6719737545
atom         1.6467000000        8.8893400000        7.3885600000 N         0.0000000000         0.0000000000       -33.1220907750     -139.1456567146       72.2438721706
atom         9.5812300000        1.9185500000        5.7977500000 N         0.0000000000         0.0000000000        29.4205021793      143.8445156924      -41.6600391986
atom         4.0789600000        1.6365200000        0.8187600000 N         0.0000000000         0.0000000000        33.1288217119      139.1592079204       72.2277053306
atom         7.5646900000        8.6079300000       12.3680000000 N         0.0000000000         0.0000000000       -29.4474775100     -143.8806875229      -41.7166568430
atom         9.2738100000        1.2595900000       12.2694000000 N         0.0000000000         0.0000000000        76.5258035888       86.0122625200      -25.1534952011
atom         2.5251400000        9.5204000000        0.6392500000 N         0.0000000000         0.0000000000       -94.0860642801      -89.4300932588       45.2326035344
atom         7.8715000000        9.2663700000        5.6996200000 N         0.0000000000         0.0000000000       -76.5110073963      -86.0176870706      -25.2019899492
atom         3.2003500000        1.0058700000        7.2093600000 N         0.0000000000         0.0000000000        94.0525823502       89.4455824021       45.1871763592
atom         2.1618700000        6.5498700000        7.4536700000 N         0.0000000000         0.0000000000       -76.5623446952       86.0391463657       25.2222397835
atom         8.9103500000        4.2306700000        5.9441600000 N         0.0000000000         0.0000000000        94.0569980787      -89.4341151363      -45.2165068461
atom         3.5640300000        3.9760600000        0.8834700000 N         0.0000000000         0.0000000000        76.5261375760      -86.0220446627       25.2236867561
atom         8.2353100000        6.2956700000       12.5139000000 N         0.0000000000         0.0000000000       -94.0563282584       89.4492184238      -45.1903370258
atom        11.0111000000        2.1885600000       10.9106000000 N         0.0000000000         0.0000000000       -72.8442563410       12.5411827598      -39.1669070733
atom         0.7598000000        8.8451400000        2.0874200000 N         0.0000000000         0.0000000000        75.4367487388      -20.0008861642       34.7534644453
atom         6.1340100000        8.3373800000        4.3409200000 N         0.0000000000         0.0000000000        72.9257023892      -12.5332159861      -39.2310314354
atom         4.9653400000        1.6817200000        8.6577600000 N         0.0000000000         0.0000000000       -75.3291775713       19.9637086104       34.6383700744
atom         0.4242500000        7.4786300000        8.8123000000 N         0.0000000000         0.0000000000        72.9355101470       12.5545255183       39.2063707688
atom        10.6754000000        3.5552300000        4.4956700000 N         0.0000000000         0.0000000000       -75.3672657932      -19.9860668168      -34.7017981010
atom         5.3015200000        3.0473300000        2.2422900000 N         0.0000000000         0.0000000000       -72.9053200335      -12.5492013691       39.1946623723
atom         6.4703000000        6.9717000000       11.0656000000 N         0.0000000000         0.0000000000        75.3310831061       19.9720422905      -34.6598143739
atom        10.6812000000        3.6769400000        0.3111200000 N         0.0000000000         0.0000000000        68.3689413359        3.5603312309       92.7561754018
atom         1.0081900000        6.9907900000       12.8037000000 N         0.0000000000         0.0000000000       -68.1862096319      -14.1617322983      -80.7201123664
atom         6.4645200000        6.8487000000        6.8811600000 N         0.0000000000         0.0000000000       -68.3545611091       -3.5625101577       92.7570554158
atom         4.7171900000        3.5352100000        6.2334900000 N         0.0000000000         0.0000000000        68.1976890316       14.1251270951      -80.7071532143
atom         0.7545300000        8.9674000000        6.2719200000 N         0.0000000000         0.0000000000       -68.3449130021        3.5711801856      -92.7430036656
atom        10.4274000000        1.7012000000        6.9196200000 N         0.0000000000         0.0000000000        68.1760402860      -14.1512984055       80.6988352384
atom         4.9710800000        1.5581700000       12.8421000000 N         0.0000000000         0.0000000000        68.3559784220       -3.5659745478      -92.7316601234
atom         6.7184000000        8.8247700000        0.3499000000 N         0.0000000000         0.0000000000       -68.1813518513       14.1170814940       80.7101841269
atom         9.5247100000        0.4982200000        0.2804600000 N         0.0000000000         0.0000000000        17.4318759989      -56.8808974641       92.1801538022
atom         2.1188600000       10.1303000000       12.5810000000 N         0.0000000000         0.0000000000       -28.2723674421       47.9525775123     -100.8892959546
atom         7.6209100000       10.0276000000        6.8508100000 N         0.0000000000         0.0000000000       -17.4067108376       56.8618231491       92.2230430398
atom         3.6064500000        0.3958400000        6.0111100000 N         0.0000000000         0.0000000000        28.2703173463      -47.9921886031     -100.8401615903
atom         1.9107600000        5.7886600000        6.3025600000 N         0.0000000000         0.0000000000       -17.4249956535      -56.8782348329      -92.2053464458
atom         9.3164800000        4.8406000000        7.1424600000 N         0.0000000000         0.0000000000        28.2817251041       47.9571333770      100.8472611646
atom         3.8148000000        4.7371600000       12.8722000000 N         0.0000000000         0.0000000000        17.4175149522       56.8725446709      -92.1917781886
atom         7.8292900000        5.6855200000        0.5721000000 N         0.0000000000         0.0000000000       -28.2693344707      -47.9961901176      100.8418972805
atom         0.6352500000        2.0293700000       10.0670000000 N         0.0000000000         0.0000000000        72.6658597663      -13.4283263955      -64.6062501989
atom        11.1244000000        9.1872900000        2.8658000000 N         0.0000000000         0.0000000000       -78.7992094590       30.3762834886       58.8071061336
atom         5.0901100000        8.4965900000        3.4970400000 N         0.0000000000         0.0000000000       -72.6524528600       13.4070576639      -64.5956285342
atom         6.0211000000        1.3398600000        9.4357900000 N         0.0000000000         0.0000000000        78.7917194885      -30.3586783310       58.7840741566
atom        10.8002000000        7.3192900000        9.6559900000 N         0.0000000000         0.0000000000       -72.6710965451      -13.4410629128       64.5874214150
atom         0.3109000000        3.8972700000        3.7173000000 N         0.0000000000         0.0000000000        78.7632012298       30.3869927579      -58.7982009546
atom         6.3455500000        3.2066900000        3.0859800000 N         0.0000000000         0.0000000000        72.6659220416       13.4418475401       64.5809511690
atom         5.4145500000        6.6299700000       10.2875000000 N         0.0000000000         0.0000000000       -78.7928544458      -30.3527730091      -58.7969543834
atom         0.4769300000        3.7701800000        0.0720400000 O         0.0000000000         0.0000000000      -300.2284974956      -16.8899174599       52.4598061532
atom        11.2227000000        6.8248600000       13.0350000000 O         0.0000000000         0.0000000000       294.3791718753       32.5836245842      -55.6574374837
atom         5.2487700000        6.7553800000        6.6422400000 O         0.0000000000         0.0000000000       300.2448622069       16.9106017314       52.4245736318
atom         5.9227200000        3.7006500000        6.4648500000 O         0.0000000000         0.0000000000      -294.4036037580      -32.4696838793      -55.6704337705
atom        10.9588000000        9.0605900000        6.5108300000 O         0.0000000000         0.0000000000       300.2216363333      -16.8713326683      -52.3972332827
atom         9.8799900000        1.6629000000        8.0284600000 O         0.0000000000         0.0000000000       131.3220371721       11.4745618889     -270.6590415543
atom         6.1868500000        1.4650700000       13.0810000000 O         0.0000000000         0.0000000000      -300.2241811528       16.8492792152      -52.4118483483
atom         5.5128400000        8.9899900000        0.1185100000 O         0.0000000000         0.0000000000       294.4062809104      -32.4197823892       55.6556107343
atom        10.1509000000        3.6728600000        1.4235200000 O         0.0000000000         0.0000000000       126.5526431343        0.1714789936     -273.4677124630
atom         1.5557000000        6.9526000000       11.6949000000 O         0.0000000000         0.0000000000      -131.3427268598       11.4411684881      270.6658925472
atom         6.9950000000        6.8526700000        7.9934900000 O         0.0000000000         0.0000000000      -126.6085422584       -0.1414781185     -273.4553957644
atom         4.1697500000        3.5735200000        5.1246800000 O         0.0000000000         0.0000000000       131.3245948828      -11.4792300062      270.6696788532
atom         1.2850200000        8.9635100000        5.1595900000 O         0.0000000000         0.0000000000      -126.6090978403        0.1213662454      273.4456243597
atom         0.2128700000        1.5355100000        6.6881900000 O         0.0000000000         0.0000000000      -294.3851909155       32.5299017365       55.6777810746
atom         4.4405600000        1.5617700000       11.7298000000 O         0.0000000000         0.0000000000       126.6017961617       -0.0482341262      273.4386936599
atom         7.2658000000        8.8631200000        1.4587300000 O         0.0000000000         0.0000000000      -131.3092616285      -11.4841860139     -270.6521612331
atom         9.0579400000        0.9261700000        1.3454400000 O         0.0000000000         0.0000000000       110.4704072039     -105.7349949397     -264.2030879590
atom         2.6229600000        9.6888800000       11.5437000000 O         0.0000000000         0.0000000000      -120.1795309151      105.8306406481      254.8698256506
atom         8.0881000000        9.5995100000        7.9155500000 O         0.0000000000         0.0000000000      -110.5761408839      105.7736131041     -264.1462829686
atom         3.1023000000        0.8372100000        4.9738400000 O         0.0000000000         0.0000000000       120.2016839425     -105.8253617928      254.8639243976
atom         2.3774500000        6.2167400000        5.2375900000 O         0.0000000000         0.0000000000      -110.4633189820     -105.7735564578      264.2004694632
atom         8.8122500000        4.3992300000        8.1796800000 O         0.0000000000         0.0000000000       120.2157155181      105.8222151516     -254.8229939351
atom         3.3477500000        4.3089800000       11.8075000000 O         0.0000000000         0.0000000000       110.5429461115      105.7946655172      264.1131034533
atom         8.3334500000        6.1268300000        1.6094000000 O         0.0000000000         0.0000000000      -120.1942291178     -105.8043723180     -254.8445765978
atom        10.1553000000       10.0154000000        0.1247800000 O         0.0000000000         0.0000000000      -151.4918887985      257.4716732534       37.0773130142
atom         1.3295100000        0.5125400000       12.6524000000 O         0.0000000000         0.0000000000       191.1945439501     -228.2949217147      -11.9403250212
atom         6.9901500000        0.5104100000        6.6955100000 O         0.0000000000         0.0000000000       151.5362616690     -257.4731614266       36.9691610755
atom         4.3957400000       10.0135000000        6.0825600000 O         0.0000000000         0.0000000000      -191.1800342521      228.3360008286      -11.9702577311
atom         1.2801400000        4.7258000000        6.4581700000 O         0.0000000000         0.0000000000       151.5021631591      257.4924253807      -37.0639385106
atom        10.1059000000        5.8028200000        7.0710800000 O         0.0000000000         0.0000000000      -191.2110762342     -228.2969612124       11.9443830390
atom         4.4455600000        5.8000000000       13.0275000000 O         0.0000000000         0.0000000000      -151.5381042655     -257.4667252864      -36.9810971914
atom         7.0400700000        4.7231700000        0.5006000000 O         0.0000000000         0.0000000000       191.1712000520      228.3331919364       11.9805602857
atom         0.9823000000        0.8710800000        9.7646800000 O         0.0000000000         0.0000000000       -88.5304018990      278.6090651100       77.5398199869
atom        10.9697000000       10.3951000000        3.1316500000 O         0.0000000000         0.0000000000        42.3951184817     -292.6091024428      -69.8430705756
atom         4.7429600000        9.6548800000        3.1948900000 O         0.0000000000         0.0000000000        88.5551796899     -278.5979898979       77.4798081144
atom         6.1766400000        0.1319700000        9.7010100000 O         0.0000000000         0.0000000000       -42.5834363389      292.6116115479      -69.6905877942
atom        10.4533000000        6.1609500000        9.9583100000 O         0.0000000000         0.0000000000        88.4992263311      278.6272725364      -77.5389473049
atom         0.4657800000        5.1051400000        3.4515600000 O         0.0000000000         0.0000000000       -42.4215309228     -292.6311709129       69.8171844825
atom         6.6924900000        4.3650400000        3.3881500000 O         0.0000000000         0.0000000000       -88.5023048792     -278.6131030719      -77.4975241501
atom         5.2590000000        5.4221100000       10.0221000000 O         0.0000000000         0.0000000000        42.5936137984      292.6061019685       69.7338395444
atom         1.1994500000        3.0777600000        9.6518600000 O         0.0000000000         0.0000000000      -134.2102090851     -242.2745865853       99.8183163541
atom        10.3645000000        8.2669700000        3.2448700000 O         0.0000000000         0.0000000000       183.6768856745      214.4732009199      -92.5373288946
atom         4.5262000000        7.4481800000        3.0815800000 O         0.0000000000         0.0000000000       134.1356264223      242.2805384541       99.8840841642
atom         6.7803700000        2.2605000000        9.8152700000 O         0.0000000000         0.0000000000      -183.5283387262     -214.5452744776      -92.6292660992
atom        10.2359000000        8.3675900000       10.0711000000 O         0.0000000000         0.0000000000       134.2245510916     -242.2491194625      -99.7971546474
atom         1.0705800000        2.9768800000        3.3381000000 O         0.0000000000         0.0000000000      -183.6372359588      214.5013352628       92.5685809762
atom         6.9097900000        2.1583900000        3.5012500000 O         0.0000000000         0.0000000000      -134.2110583051      242.2452010609      -99.8331405033
atom         4.6553000000        7.5506700000        9.9081200000 O         0.0000000000         0.0000000000       183.5223240621     -214.5641695815       92.5987175422
atom         8.7246300000        2.6070500000       12.4751000000 C         0.0000000000         0.0000000000       106.3268770032      -31.9752979110      -15.0566076804
atom         2.9680700000        8.1380200000        0.5344000000 C         0.0000000000         0.0000000000      -100.1299128084       26.8232659980       18.3121455144
atom         8.4208300000        7.9189300000        5.9049300000 C         0.0000000000         0.0000000000      -106.3085436547       31.9789474381      -15.0100363944
atom         2.7572600000        2.3882100000        7.1043400000 C         0.0000000000         0.0000000000       100.1222794599      -26.8072956334       18.2902383253
atom         2.7109600000        7.8973700000        7.2481300000 C         0.0000000000         0.0000000000      -106.3025492837      -31.9845445764       15.0286216116
atom         8.4673600000        2.8483000000        6.0490000000 C         0.0000000000         0.0000000000       100.1280827473       26.8246992523      -18.3019409740
atom         3.0147900000        2.6285700000        0.6781900000 C         0.0000000000         0.0000000000       106.3116115590       31.9850818753       15.0129106850
atom         8.6784300000        7.6779900000       12.6190000000 C         0.0000000000         0.0000000000      -100.1210276154      -26.8023876627      -18.3003634902
atom        10.4756000000        3.5530900000       11.0777000000 C         0.0000000000         0.0000000000         5.5254486592      -83.0332660875       79.0163161725
atom         1.1396700000        7.4173200000        2.0263700000 C         0.0000000000         0.0000000000         1.1559305352       80.5784408641      -86.1788878814
atom         6.6698000000        6.9728700000        4.5077000000 C         0.0000000000         0.0000000000        -5.5822940075       82.9977292143       79.0440255147
atom         4.5853000000        3.1094800000        8.5963300000 C         0.0000000000         0.0000000000        -1.1307796608      -80.5764665977      -86.1519727216
atom         0.9597500000        8.8432100000        8.6453900000 C         0.0000000000         0.0000000000        -5.5611038801      -83.0151902124      -79.0235591947
atom        10.2955000000        2.1274100000        4.5568900000 C         0.0000000000         0.0000000000        -1.1293027214       80.5897879310       86.1946389929
atom         4.7659100000        1.6827600000        2.0755600000 C         0.0000000000         0.0000000000         5.5637672338       82.9923240110      -79.0426623878
atom         6.8504600000        8.3994300000       11.1271000000 C         0.0000000000         0.0000000000         1.1314737003      -80.5808446016       86.1335814738
atom        10.1269000000        1.0331700000       11.1166000000 C         0.0000000000         0.0000000000        -1.2701313104       81.4947637081       51.1299437493
atom         1.7913300000        9.8718200000        1.8127500000 C         0.0000000000         0.0000000000       -23.9316897534      -76.4077574582      -52.0558202984
atom         7.0182300000        9.4928600000        4.5469700000 C         0.0000000000         0.0000000000         1.2771660371      -81.4927382816       51.1287388289
atom         3.9342200000        0.6546600000        8.3828800000 C         0.0000000000         0.0000000000        23.8956480784       76.4063304716      -52.0488173182
atom         1.3088600000        6.3234200000        8.6065100000 C         0.0000000000         0.0000000000         1.2245459620       81.4778459451      -51.1547255606
atom         9.6441600000        4.5820900000        4.7706600000 C         0.0000000000         0.0000000000        23.9208106852      -76.4054626858       52.0251202042
atom         4.4171700000        4.2026900000        2.0361800000 C         0.0000000000         0.0000000000        -1.2447795286      -81.4876812339      -51.1417329869
atom         7.5013800000        5.9445700000       11.3404000000 C         0.0000000000         0.0000000000       -23.8773127197       76.4083858163       52.0261387244
energy    -35539.3807229978
charge 0
end
begin
comment generated by PY
lattice        11.3857400000         0.0000000000         0.0000000000
lattice         0.0000000000        10.5482600000         0.0000000000
lattice         0.0000000000         0.0000000000        13.1005800000
atom         6.9603400000        5.0838500000       11.4667900000 H         0.0000000000         0.0000000000        88.5408076594       96.8879742934      -24.5897899861
atom         7.7084700000        2.8218500000       11.6321900000 H         0.0000000000         0.0000000000        93.0255467743      -22.7819470242       94.8092060876
atom         3.8232500000        8.0896900000        1.4378800000 H         0.0000000000         0.0000000000       -91.2624369743       -2.2356963419      -86.0383871435
atom         9.3226400000        7.7536100000        5.0005300000 H         0.0000000000         0.0000000000       -94.9138923461       14.1486940550       97.0422539940