begin
comment generated by PY
lattice        11.4200000000         0.0000000000         0.0000000000
lattice         0.0000000000        10.5800000000         0.0000000000
lattice         0.0000000000         0.0000000000        13.1400000000
atom         7.2934100000        5.0706800000       10.9273000000 H         0.0000000000         0.0000000000        41.9633267278      128.7860659675       18.7155661650
atom         7.6194500000        2.5873400000       11.7980000000 H         0.0000000000         0.0000000000        93.1481816946      -34.0899124482       86.4681160427
atom         3.8160900000        7.9389500000        1.3553300000 H         0.0000000000         0.0000000000       -93.1414419597       34.0923734463      -86.4630730205
atom         9.5261100000        7.9384600000        5.2278900000 H         0.0000000000         0.0000000000       -93.1426718323       34.0948887490       86.4532695202
atom         1.9093700000        2.5875800000        7.9253700000 H         0.0000000000         0.0000000000        93.1477656589      -34.1002795011      -86.4527055418
atom         3.8161800000        7.8776500000        7.9252200000 H         0.0000000000         0.0000000000       -93.1448783129      -34.0907764266      -86.4541233991
atom         7.6193500000        2.6485600000        5.2278500000 H         0.0000000000         0.0000000000        93.1430147603       34.0910812041       86.4594686687
atom         1.9094600000        2.6489300000        1.3554000000 H         0.0000000000         0.0000000000        93.1475786200       34.0926120225      -86.4606340185
atom         9.5261500000        7.8772900000       11.7978000000 H         0.0000000000         0.0000000000       -93.1369164633      -34.0940585693       86.4588938580
atom         7.9014000000        2.4410200000        0.3997400000 H         0.0000000000         0.0000000000        66.2609861732      -10.8310916760     -119.7510623691
atom         3.5342600000        8.0852700000       12.7536000000 H         0.0000000000         0.0000000000       -66.2695161401       10.8298522483      119.7527624633
atom         9.2440700000        8.0846100000        6.9696000000 H         0.0000000000         0.0000000000       -66.2487413294       10.8528143108     -119.7603411058
atom         2.1913600000        2.4412700000        6.1836700000 H         0.0000000000         0.0000000000        66.2606982828      -10.8319196327      119.7612006137
atom         3.5341700000        7.7314600000        6.1835300000 H         0.0000000000         0.0000000000       -66.2532721477      -10.8450091075      119.7579365411
atom         7.9013000000        2.7947000000        6.9695700000 H         0.0000000000         0.0000000000        66.2595394135       10.8506294006     -119.7566807463
atom         2.1913900000        2.7952400000       12.7537000000 H         0.0000000000         0.0000000000        66.2615975499       10.8295395001      119.7471379370
atom         9.2443200000        7.7309700000        0.3995100000 H         0.0000000000         0.0000000000       -66.2683943568      -10.8293004982     -119.7498757559
atom         9.7140200000        3.5440700000       10.2810000000 H         0.0000000000         0.0000000000        58.7924385903      -47.4962394135      112.6102012019
atom         1.7213400000        6.9820300000        2.8721600000 H         0.0000000000         0.0000000000       -58.7736139454       47.5104150757     -112.6098218266
atom         7.4313600000        6.9822000000        3.7106400000 H         0.0000000000         0.0000000000       -58.7750688887       47.4936325072      112.6176352134
atom         4.0041100000        3.5440600000        9.4425100000 H         0.0000000000         0.0000000000        58.7701794139      -47.4974773510     -112.6180503033
atom         1.7214400000        8.8341300000        9.4424200000 H         0.0000000000         0.0000000000       -58.7715162870      -47.5064202790     -112.6133899438
atom         9.7141600000        1.6921500000        3.7107300000 H         0.0000000000         0.0000000000        58.7681399862       47.4935540776      112.6218490260
atom         4.0042500000        1.6920900000        2.8723300000 H         0.0000000000         0.0000000000        58.7694621952       47.5078019017     -112.6127673090
atom         7.4314600000        8.8341300000       10.2809000000 H         0.0000000000         0.0000000000       -58.7772653641      -47.5046409979      112.6311820431
atom        11.1898000000        3.7325000000       11.2863000000 H         0.0000000000         0.0000000000      -115.2619065718      -73.4872737914       -9.4997058342
atom         0.2456700000        6.7937300000        1.8667200000 H         0.0000000000         0.0000000000       115.2686926406       73.4854093873        9.5138556545
atom         5.9555800000        6.7938900000        4.7159100000 H         0.0000000000         0.0000000000       115.2817157012       73.4679507308       -9.4870107775
atom         5.4798300000        3.7324300000        8.4372000000 H         0.0000000000         0.0000000000      -115.2713719217      -73.4778125804        9.4917649024
atom         0.2456900000        9.0224000000        8.4371400000 H         0.0000000000         0.0000000000       115.2819525743      -73.4740186352        9.4897008107
atom        11.1898000000        1.5037600000        4.7160900000 H         0.0000000000         0.0000000000      -115.2521752578       73.4738930445       -9.4921190937
atom         5.4799200000        1.5038400000        1.8668800000 H         0.0000000000         0.0000000000      -115.2692272907       73.4789496665        9.5153231331
atom         5.9557900000        9.0224800000       11.2863000000 H         0.0000000000         0.0000000000       115.2661979625      -73.4848367054       -9.4938901912
atom         8.7912900000        1.0229700000       10.2013000000 H         0.0000000000         0.0000000000        73.5364887752      -21.5569306022      106.0151143343
atom         2.6441700000        9.5031900000        2.9519600000 H         0.0000000000         0.0000000000       -73.5330160932       21.5615553657     -106.0072842732
atom         8.3545000000        9.5031600000        3.6313200000 H         0.0000000000         0.0000000000       -73.5339249154       21.5503068087      106.0068922439
atom         3.0811900000        1.0230000000        9.5220100000 H         0.0000000000         0.0000000000        73.5298167318      -21.5529874614     -106.0120284784
atom         2.6445400000        6.3131500000        9.5218100000 H         0.0000000000         0.0000000000       -73.5363775171      -21.5647478208     -106.0008398551
atom         8.7911900000        4.2132000000        3.6313400000 H         0.0000000000         0.0000000000        73.5235128058       21.5476350726      106.0127560093
atom         3.0813000000        4.2133100000        2.9520700000 H         0.0000000000         0.0000000000        73.5355160932       21.5486051057     -106.0071543063
atom         8.3542700000        6.3129300000       10.2012000000 H         0.0000000000         0.0000000000       -73.5364736853      -21.5545232701      106.0138397365
atom         9.8521200000       10.3607000000       10.9274000000 H         0.0000000000         0.0000000000       -41.9604118508      128.7833721409       18.7170038897
atom         1.5833400000        0.1655100000        2.2259100000 H         0.0000000000         0.0000000000        41.9621566947     -128.7762191135      -18.7177969834
atom         7.2938000000        0.1655100000        4.3574800000 H         0.0000000000         0.0000000000        41.9482381988     -128.7848081625       18.7077629719
atom         4.1419500000       10.3607000000        8.7958300000 H         0.0000000000         0.0000000000       -41.9591918648      128.7901854091      -18.7077724327
atom         1.5838000000        5.0707500000        8.7957500000 H         0.0000000000         0.0000000000        41.9505080190      128.7896047565      -18.7141338566
atom         9.8519100000        5.4554800000        4.3576200000 H         0.0000000000         0.0000000000       -41.9602063160     -128.7861666061       18.6982728585
atom         4.1421600000        5.4555500000        2.2259400000 H         0.0000000000         0.0000000000       -41.9650791166     -128.7777432384      -18.7065687196
atom         9.4658400000        3.2979700000       12.3921000000 N         0.0000000000         0.0000000000        31.9540554057     -130.4559254169      -39.6013524391
atom         1.9697300000        7.2283000000        0.7610900000 N         0.0000000000         0.0000000000       -31.9495135421      130.4730635430       39.6113493402
atom         7.6795900000        7.2279900000        5.8217900000 N         0.0000000000         0.0000000000       -31.9263175867      130.4887784200      -39.5952274627
atom         3.7558400000        3.2981100000        7.3313700000 N         0.0000000000         0.0000000000        31.9345067544     -130.4693719638       39.5953488445
atom         1.9696900000        8.5881800000        7.3312800000 N         0.0000000000         0.0000000000       -31.9372626434     -130.4719023564       39.5935185462
atom         9.4658100000        1.9380000000        5.8218600000 N         0.0000000000         0.0000000000        31.9259804064      130.4911389923      -39.5802812473
atom         3.7558600000        1.9383000000        0.7612500000 N         0.0000000000         0.0000000000        31.9465800749      130.4718098770       39.5917717865
atom         7.6798000000        8.5879200000       12.3920000000 N         0.0000000000         0.0000000000       -31.9483518111     -130.4459087427      -39.6083233481
atom         8.8027400000        0.9737500000       12.3178000000 N         0.0000000000         0.0000000000       104.4154289162      122.0838202235      -57.9965885886
atom         2.6328100000        9.5525200000        0.8354400000 N         0.0000000000         0.0000000000      -104.4035169009     -122.0933087525       58.0282183883
atom         8.3430100000        9.5521400000        5.7478600000 N         0.0000000000         0.0000000000      -104.4274895828     -122.0660740081      -58.0438483551
atom         3.0925700000        0.9739100000        7.4054700000 N         0.0000000000         0.0000000000       104.4226740672      122.0816798500       58.0264113877
atom         2.6330500000        6.2640000000        7.4053000000 N         0.0000000000         0.0000000000      -104.4272777803      122.0712166289       58.0343291263
atom         8.8025100000        4.2621800000        5.7478700000 N         0.0000000000         0.0000000000       104.4214393228     -122.0743925983      -58.0335614348
atom         3.0927300000        4.2625100000        0.8355400000 N         0.0000000000         0.0000000000       104.4034351839     -122.0976504032       58.0244775891
atom         8.3428700000        6.2637000000       12.3177000000 N         0.0000000000         0.0000000000      -104.4249298620      122.0949732509      -58.0325139422
atom        10.5930000000        1.7451100000       11.0070000000 N         0.0000000000         0.0000000000       -84.2224075879       31.3234915364      -51.4074697804
atom         0.8425000000        8.7810800000        2.1461600000 N         0.0000000000         0.0000000000        84.2279090781      -31.3234727334       51.4378318185
atom         6.5526600000        8.7811800000        4.4369400000 N         0.0000000000         0.0000000000        84.2294088652      -31.3348067449      -51.4497396706
atom         4.8829200000        1.7451000000        8.7162700000 N         0.0000000000         0.0000000000       -84.2286441539       31.3124229234       51.4547237292
atom         0.8427100000        7.0351000000        8.7161800000 N         0.0000000000         0.0000000000        84.2193389506       31.3187725448       51.4501041690
atom        10.5929000000        3.4911000000        4.4370800000 N         0.0000000000         0.0000000000       -84.2105561936      -31.3299724262      -51.4682406164
atom         4.8830100000        3.4911400000        2.1463100000 N         0.0000000000         0.0000000000       -84.2058794427      -31.3275140769       51.4148904750
atom         6.5525800000        7.0351300000       11.0069000000 N         0.0000000000         0.0000000000        84.2152890921       31.3091189731      -51.3820144113
atom        10.2128000000        3.5174500000        0.4255200000 N         0.0000000000         0.0000000000        59.4058291783       18.9299433876       88.8039207667
atom         1.2229200000        7.0088600000       12.7276000000 N         0.0000000000         0.0000000000       -59.3921797454      -18.9084342583      -88.8387081128
atom         6.9326000000        7.0084300000        6.9951800000 N         0.0000000000         0.0000000000       -59.4135558334      -18.9232047172       88.7999714768
atom         4.5028300000        3.5175100000        6.1579200000 N         0.0000000000         0.0000000000        59.4211549819       18.9256106534      -88.8063100530
atom         1.2226600000        8.8075800000        6.1578700000 N         0.0000000000         0.0000000000       -59.4110674229       18.9290171339      -88.7972865667
atom        10.2127000000        1.7185100000        6.9953200000 N         0.0000000000         0.0000000000        59.4503525673      -18.9206138465       88.7927006165
atom         4.5027100000        1.7187900000       12.7278000000 N         0.0000000000         0.0000000000        59.4020542733      -18.9175245846      -88.8434265357
atom         6.9329500000        8.8074100000        0.4255100000 N         0.0000000000         0.0000000000       -59.3963343816       18.9305888701       88.8124317177
atom         9.5401200000        0.3881200000        0.2707300000 N         0.0000000000         0.0000000000        39.5063414312      -56.9507716118       79.0724945712
atom         1.8954800000       10.1382000000       12.8825000000 N         0.0000000000         0.0000000000       -39.4825630259       56.9074345744      -79.0405861048
atom         7.6056500000       10.1377000000        6.8408100000 N         0.0000000000         0.0000000000       -39.5003378123       56.9337465411       79.0623302857
atom         3.8299100000        0.3883100000        6.3125000000 N         0.0000000000         0.0000000000        39.5098606600      -56.9348387833      -79.0683120027
atom         1.8957100000        5.6783700000        6.3123700000 N         0.0000000000         0.0000000000       -39.5032173062      -56.9341730077      -79.0619971257
atom         9.5397800000        4.8477600000        6.8408800000 N         0.0000000000         0.0000000000        39.4850488818       56.9207338172       79.0596177503
atom         3.8300800000        4.8481400000       12.8826000000 N         0.0000000000         0.0000000000        39.4902200736       56.9256967069      -79.0447085267
atom         7.6054600000        5.6781300000        0.2706200000 N         0.0000000000         0.0000000000       -39.4946913840      -56.9394817113       79.0671278254
atom         0.2636900000        1.4336300000       10.2827000000 N         0.0000000000         0.0000000000        81.0743772319      -36.1488571582      -49.7867200615
atom        11.1718000000        9.0925400000        2.8705000000 N         0.0000000000         0.0000000000       -81.1178884657       36.1431172349       49.7394570776
atom         5.4619800000        9.0929000000        3.7126500000 N         0.0000000000         0.0000000000       -81.0870196399       36.1345090999      -49.7226544531
atom         5.9736200000        1.4335000000        9.4405900000 N         0.0000000000         0.0000000000        81.0892282492      -36.1551888524       49.7278907819
atom        11.1720000000        6.7234100000        9.4404400000 N         0.0000000000         0.0000000000       -81.1068866684      -36.1494610386       49.7123254320
atom         0.2636000000        3.8027400000        3.7127400000 N         0.0000000000         0.0000000000        81.0741986138       36.1422107543      -49.7258092778
atom         5.9738100000        3.8026600000        2.8705100000 N         0.0000000000         0.0000000000        81.0881562059       36.1449452858       49.7160146940
atom         5.4618000000        6.7236600000       10.2827000000 N         0.0000000000         0.0000000000       -81.0858039114      -36.1400825847      -49.7161698501
atom         0.0138200000        3.6692500000        0.3001100000 O         0.0000000000         0.0000000000      -294.8462412493      -32.7374312482       28.7988620945
atom         0.0018600000        6.8571200000       12.8528000000 O         0.0000000000         0.0000000000       294.8288598637       32.7105464566      -28.7243887982
atom         5.7115400000        6.8568800000        6.8697400000 O         0.0000000000         0.0000000000       294.8364614482       32.6650384859       28.8023411627
atom         5.7239000000        3.6689900000        6.2833100000 O         0.0000000000         0.0000000000      -294.8554969255      -32.6580310353      -28.7800106758
atom         0.0015900000        8.9590300000        6.2833100000 O         0.0000000000         0.0000000000       294.8428220205      -32.6511924591      -28.7989510493
atom         9.5742900000        1.6533200000        8.0473400000 O         0.0000000000         0.0000000000       151.8196077455       14.7380615621     -256.3270852705
atom         5.7237500000        1.5670100000       12.8531000000 O         0.0000000000         0.0000000000      -294.8508135055       32.7202623980      -28.7594550939
atom         5.7119000000        8.9591000000        0.3002100000 O         0.0000000000         0.0000000000       294.8355579479      -32.7094161583       28.7704480690
atom         9.5744100000        3.5823400000        1.4776100000 O         0.0000000000         0.0000000000       151.8184020921      -14.6646315952     -256.3440325260
atom         1.8614200000        6.9439700000       11.6756000000 O         0.0000000000         0.0000000000      -151.8530960373       14.6580067374      256.3252843004
atom         7.5709500000        6.9432400000        8.0472500000 O         0.0000000000         0.0000000000      -151.8134671349       14.7350783549     -256.3383325503
atom         3.8644500000        3.5826500000        5.1058600000 O         0.0000000000         0.0000000000       151.8063142261      -14.7243160796      256.3509486802
atom         1.8610200000        8.8727600000        5.1058000000 O         0.0000000000         0.0000000000      -151.8263810417      -14.7356609234      256.3507893851
atom         0.0138100000        1.5670200000        6.8699700000 O         0.0000000000         0.0000000000      -294.8709849801       32.6524956522       28.7875725011
atom         3.8642400000        1.6538700000       11.6757000000 O         0.0000000000         0.0000000000       151.8397581698       14.6682622007      256.3742812229
atom         7.5714400000        8.8724100000        1.4775200000 O         0.0000000000         0.0000000000      -151.8566409755      -14.6909236245     -256.3342400709
atom         9.3339000000        0.8573000000        1.3884800000 O         0.0000000000         0.0000000000        50.3840510386     -112.5479466849     -277.2306820750
atom         2.1016800000        9.6689500000       11.7648000000 O         0.0000000000         0.0000000000       -50.3707513700      112.5816467792      277.2237556327
atom         7.8117800000        9.6683600000        7.9585100000 O         0.0000000000         0.0000000000       -50.3510962139      112.5930346696     -277.2086905900
atom         3.6237300000        0.8576100000        5.1947900000 O         0.0000000000         0.0000000000        50.3726747377     -112.5831793005      277.2207051355
atom         2.1018600000        6.1476500000        5.1946500000 O         0.0000000000         0.0000000000       -50.3558130067     -112.5798187282      277.2228079029
atom         9.3335100000        4.3784700000        7.9585700000 O         0.0000000000         0.0000000000        50.3929995013      112.5775085345     -277.2045418201
atom         3.6238900000        4.3788800000       11.7649000000 O         0.0000000000         0.0000000000        50.3759376517      112.5797726071      277.2230009023
atom         7.8116700000        6.1473800000        1.3883500000 O         0.0000000000         0.0000000000       -50.3774296810     -112.5716761074     -277.2233570985
atom        10.2402000000        9.9939300000       13.1273000000 O         0.0000000000         0.0000000000      -169.9440695314      237.7132272443       70.1428808098
atom         1.1955100000        0.5324300000        0.0259600000 O         0.0000000000         0.0000000000       169.9113779522     -237.7163071883      -70.1671481698
atom         6.9056900000        0.5320000000        6.5574500000 O         0.0000000000         0.0000000000       169.9198095977     -237.7421370122       70.1307358474
atom         4.5299300000        9.9940600000        6.5958700000 O         0.0000000000         0.0000000000      -169.9299123651      237.7256108771      -70.1401014101
atom         1.1957300000        4.7041100000        6.5957800000 O         0.0000000000         0.0000000000       169.9227153454      237.7303509434      -70.1548984299
atom        10.2398000000        5.8220000000        6.5575500000 O         0.0000000000         0.0000000000      -169.9187679713     -237.7197305560       70.1186426594
atom         4.5300700000        5.8223900000        0.0260400000 O         0.0000000000         0.0000000000      -169.9162687985     -237.7268750684      -70.1633512444
atom         6.9054000000        4.7039200000       13.1272000000 O         0.0000000000         0.0000000000       169.9506228660      237.7293486961       70.1533699531
atom         0.3215700000        0.2868300000        9.8049400000 O         0.0000000000         0.0000000000       -14.6167969451      277.1477197784      117.5052430162
atom        11.1139000000       10.2393000000        3.3483000000 O         0.0000000000         0.0000000000        14.6425130750     -277.1460804693     -117.5039643981
atom         5.4042400000       10.2397000000        3.2350400000 O         0.0000000000         0.0000000000        14.5988332739     -277.1459007168      117.4519038501
atom         6.0314800000        0.2866700000        9.9182100000 O         0.0000000000         0.0000000000       -14.6148103319      277.1590637950     -117.4732724630
atom        11.1142000000        5.5765800000        9.9180600000 O         0.0000000000         0.0000000000        14.6125093618      277.1531624235     -117.4696142324
atom         0.3214100000        4.9495800000        3.2351200000 O         0.0000000000         0.0000000000       -14.6008573045     -277.1727051143      117.4624779978
atom         6.0316900000        4.9494300000        3.3482800000 O         0.0000000000         0.0000000000       -14.6153751618     -277.1516171296     -117.4938281636
atom         5.4038600000        5.5768800000        9.8049600000 O         0.0000000000         0.0000000000        14.6347570917      277.1414118320      117.4907715173
atom         1.1559400000        2.3012800000       10.1875000000 O         0.0000000000         0.0000000000      -210.1475368750     -199.6205537745       22.2182546987
atom        10.2795000000        8.2249100000        2.9655400000 O         0.0000000000         0.0000000000       210.1555410140      199.6133524972      -22.1815322768
atom         4.5695900000        8.2253900000        3.6174900000 O         0.0000000000         0.0000000000       210.1702833276      199.5853252978       22.1949881901
atom         6.8659200000        2.3011000000        9.5357700000 O         0.0000000000         0.0000000000      -210.1580840605     -199.6125663098      -22.2067373858
atom        10.2796000000        7.5909500000        9.5355500000 O         0.0000000000         0.0000000000       210.1797275085     -199.6027212288      -22.1913352570
atom         1.1559100000        2.9351500000        3.6175500000 O         0.0000000000         0.0000000000      -210.1540652575      199.6155536559       22.1989521685
atom         6.8661400000        2.9350700000        2.9654400000 O         0.0000000000         0.0000000000      -210.1587361421      199.6098850186      -22.1541033743
atom         4.5695400000        7.5913200000       10.1877000000 O         0.0000000000         0.0000000000       210.1358011849     -199.6252917120       22.1567444107
atom         8.3608800000        2.3446900000       12.5567000000 C         0.0000000000         0.0000000000        95.9353262758      -25.6533535499      -28.8704473511
atom         3.0747000000        8.1815900000        0.5966200000 C         0.0000000000         0.0000000000       -95.9283389298       25.6569526984       28.8142115910
atom         8.7846700000        8.1811100000        5.9865300000 C         0.0000000000         0.0000000000       -95.9241407271       25.6726630107      -28.8144529345
atom         2.6508100000        2.3448900000        7.1667300000 C         0.0000000000         0.0000000000        95.9284987449      -25.6697028641       28.8100675986
atom         3.0747400000        7.6350000000        7.1665800000 C         0.0000000000         0.0000000000       -95.9155409400      -25.6751173153       28.8230316713
atom         8.3607600000        2.8911800000        5.9865300000 C         0.0000000000         0.0000000000        95.9365328507       25.6675106219      -28.8165230620
atom         2.6508800000        2.8915700000        0.5967200000 C         0.0000000000         0.0000000000        95.9356293504       25.6616613077       28.8312171957
atom         8.7847700000        7.6346400000       12.5565000000 C         0.0000000000         0.0000000000       -95.9370073542      -25.6500000967      -28.8130512315
atom        10.2621000000        3.1752600000       11.1741000000 C         0.0000000000         0.0000000000       -19.0501693175      -91.7137420263       77.9337267172
atom         1.1733900000        7.3509400000        1.9790400000 C         0.0000000000         0.0000000000        19.0335714706       91.7126333227      -77.9468829134
atom         6.8833900000        7.3509800000        4.6038000000 C         0.0000000000         0.0000000000        19.0201164330       91.6998331098       77.9605192665
atom         4.5520700000        3.1752600000        8.5493500000 C         0.0000000000         0.0000000000       -19.0094349289      -91.7088173813      -77.9582184150
atom         1.1734800000        8.4652800000        8.5492800000 C         0.0000000000         0.0000000000        19.0097347160      -91.7027270550      -77.9658225539
atom        10.2621000000        2.0609200000        4.6039200000 C         0.0000000000         0.0000000000       -19.0504778082       91.7055700773       77.9588220339
atom         4.5521800000        2.0610000000        1.9792000000 C         0.0000000000         0.0000000000       -19.0369820901       91.7148404419      -77.9409599715
atom         6.8835000000        8.4652600000       11.1741000000 C         0.0000000000         0.0000000000        19.0340146114      -91.7096010142       77.8862869367
atom         9.4716100000        0.7985200000       11.0314000000 C         0.0000000000         0.0000000000        40.0098448387       70.6905184899       83.2919405052
atom         1.9638700000        9.7276900000        2.1218800000 C         0.0000000000         0.0000000000       -40.0124308132      -70.6800136180      -83.3123337631
atom         7.6741900000        9.7276200000        4.4613900000 C         0.0000000000         0.0000000000       -40.0461700037      -70.6809538972       83.3034702105
atom         3.7614700000        0.7985600000        8.6919000000 C         0.0000000000         0.0000000000        40.0268436557       70.6872490011      -83.3039690519
atom         1.9642100000        6.0886200000        8.6917700000 C         0.0000000000         0.0000000000       -40.0314985990       70.6932975581      -83.3042037963
atom         9.4714400000        4.4376100000        4.4614700000 C         0.0000000000         0.0000000000        40.0288736225      -70.6799516742       83.3070423724
atom         3.7616200000        4.4377300000        2.1219900000 C         0.0000000000         0.0000000000        40.0275220853      -70.6658495454      -83.3224484272
atom         7.6739500000        6.0885000000       11.0313000000 C         0.0000000000         0.0000000000       -40.0090222982       70.6790569718       83.2785210635
energy    -35562.8332611931
charge 0
end
begin
comment generated by PY
lattice        11.4771000000         0.0000000000         0.0000000000
lattice         0.0000000000        10.6329000000         0.0000000000
lattice         0.0000000000         0.0000000000        13.2057000000
atom         7.4200200000        5.1050300000       10.9491500000 H         0.0000000000         0.0000000000        44.8728207676      116.6003941661       31.3349186170
atom         7.6945000000        2.6814900000       11.7028500000 H         0.0000000000         0.0000000000        77.7641093533      -29.6867961024       93.7495226541
atom         3.8100900000        8.0414000000        1.4751300000 H         0.0000000000         0.0000000000       -81.0372883603       26.5469181439      -90.6798538376
atom         9.6334100000        8.0692200000        5.2617600000 H         0.0000000000         0.0000000000       -98.0567776462       43.1432482240       79.2428412861