begin
comment generated by PY
lattice         9.0079002400         0.0000000000         0.0000000000
lattice        -4.5194083500         7.8356765100         0.0000000000
lattice        -0.0482759780        -2.4849568800         6.4253491300
atom         4.4520000000        1.0573600000        1.5258600000 C         0.0000000000         0.0000000000        72.9487560856        1.4276348259       16.3739577109
atom         2.4305100000       -0.1949900000        1.5834600000 C         0.0000000000         0.0000000000       -25.4691312095      -61.0514386613       18.1121901194
atom         2.3753700000        2.1736000000        1.6598700000 C         0.0000000000         0.0000000000       -46.4820874615       80.2373961506        8.2005089994
atom        -0.0117900000        4.2933600000        4.8994900000 C         0.0000000000         0.0000000000       -72.9507420601       -1.4285564295      -16.3743746504
atom         2.0097000000        5.5457100000        4.8418800000 C         0.0000000000         0.0000000000        25.4770537257       61.0523688411      -18.1092211507
atom         2.0648400000        3.1771200000        4.7654800000 C         0.0000000000         0.0000000000        46.4894640695      -80.2365436739       -8.2033815679
atom         3.8234500000       -0.1753700000        1.5368500000 C         0.0000000000         0.0000000000        73.6679947820     -117.7726906694      -42.2439745346
atom         1.6950300000        0.9711500000        1.7935300000 C         0.0000000000         0.0000000000      -129.0279344050      -12.6751776082       75.5198189510
atom         3.7374800000        2.2357600000        1.4398000000 C         0.0000000000         0.0000000000        77.8452574690      115.3518255425      -48.6709621958
atom         0.6167700000        5.5260900000        4.8885000000 C         0.0000000000         0.0000000000       -73.6705446163      117.7707529447       42.2385223587
atom         2.7451900000        4.3795700000        4.6318100000 C         0.0000000000         0.0000000000       129.0194349493       12.6725674948      -75.5142988707
atom         0.7027400000        3.1149600000        4.9855500000 C         0.0000000000         0.0000000000       -77.8526340770     -115.3502643315       48.6712531607
atom         6.0209500000        1.1242900000        1.6375800000 N         0.0000000000         0.0000000000        34.5242670588        7.9328012015      -10.7695300006
atom        -2.8204600000        6.2256200000        1.5886400000 N         0.0000000000         0.0000000000       -22.7717236888      -32.5689045993        2.7235822169
atom         1.5844000000        3.4994100000        1.7826500000 N         0.0000000000         0.0000000000       -17.5914486658       21.7587097327       -2.8479830298
atom        -1.5807300000        4.2264300000        4.7877700000 N         0.0000000000         0.0000000000       -34.5242104125       -7.9361730319       10.7692060943
atom         7.2606800000       -0.8749000000        4.8367100000 N         0.0000000000         0.0000000000        22.7702633293       32.5681679390       -2.7261064553
atom         2.8558100000        1.8513100000        4.6427000000 N         0.0000000000         0.0000000000        17.5932663101      -21.7577897467        2.8545169890
atom         0.0303900000        6.5096300000        1.3827900000 N         0.0000000000         0.0000000000      -127.3798542920      197.5177150353       29.2618332678
atom         0.3926900000        0.9316400000        2.2476800000 N         0.0000000000         0.0000000000       224.0096657012        3.1353376419      -83.2904330367
atom         4.3831700000        3.3928300000        1.0776800000 N         0.0000000000         0.0000000000      -114.6300796038     -198.1309451243       67.0047609749
atom         4.4098200000       -1.1589100000        5.0425500000 N         0.0000000000         0.0000000000       127.3845879721     -197.5158156739      -29.2582336935
atom         4.0475300000        4.4190800000        4.1776700000 N         0.0000000000         0.0000000000      -224.0093911034       -3.1316236496       83.2878496167
atom         0.0570400000        1.9578900000        5.3476700000 N         0.0000000000         0.0000000000       114.6298949065      198.1275384309      -67.0036456721
atom         6.5542800000        2.2317500000        1.7593700000 O         0.0000000000         0.0000000000      -119.0314989885     -256.0183206664      -29.0251668473
atom         6.6703200000        0.0571300000        1.5864600000 O         0.0000000000         0.0000000000      -146.3920545027      238.7006103891       15.5485769105
atom        -2.1973100000        5.2300500000        1.1685400000 O         0.0000000000         0.0000000000      -141.7886795451      227.3921760475       98.3592020960
atom        -3.9922100000        6.1709400000        2.0048600000 O         0.0000000000         0.0000000000       269.3941484786       11.6011441970      -98.4387251672
atom         0.3730500000        3.4486300000        2.0914700000 O         0.0000000000         0.0000000000       276.0592030366       16.8503391456      -66.5675444883
atom         2.1829100000        4.5755500000        1.5686800000 O         0.0000000000         0.0000000000      -135.2485270927     -243.4498001595       47.4579417693
atom        -2.1140700000        3.1189700000        4.6659800000 O         0.0000000000         0.0000000000       119.0377945181      256.0186413853       29.0256431482
atom        -2.2301000000        5.2935900000        4.8388900000 O         0.0000000000         0.0000000000       146.3906708698     -238.6979584261      -15.5483001839
atom         6.6375300000        0.1206700000        5.2568100000 O         0.0000000000         0.0000000000       141.7868808224     -227.3923605319      -98.3590867932
atom         8.4324300000       -0.8202200000        4.4204900000 O         0.0000000000         0.0000000000      -269.3928948126      -11.6001678961       98.4397398313
atom         4.0671600000        1.9020900000        4.3338800000 O         0.0000000000         0.0000000000      -276.0596642476      -16.8514684758       66.5672985801
atom         2.2573000000        0.7751600000        4.8566900000 O         0.0000000000         0.0000000000       135.2472775656      243.4511627420      -47.4631090351
atom         1.0430700000        6.5828700000        1.3798300000 H         0.0000000000         0.0000000000       -66.9478658420       -4.0070022415       -1.5221424005
atom        -0.4857200000        5.6537900000        1.2368400000 H         0.0000000000         0.0000000000        33.8949536693       49.5133965723        6.5412768032
atom        -0.0429200000        0.0222900000        2.3544500000 H         0.0000000000         0.0000000000        28.3987928193       60.1246960190       -6.7474703726
atom        -0.0817400000        1.8154400000        2.4062300000 H         0.0000000000         0.0000000000        30.4097844920      -57.4431796219      -13.2726996696
atom         3.8333400000        4.2446500000        1.0770200000 H         0.0000000000         0.0000000000        37.3660196980      -53.2627720536        2.8904961666
atom         5.3895300000        3.3534500000        0.9570600000 H         0.0000000000         0.0000000000       -68.0177615506        5.6848581816       12.5140462754
atom         3.3971500000       -1.2321500000        5.0455300000 H         0.0000000000         0.0000000000        66.9438235527        4.0070293939        1.5211232189
atom         4.9259400000       -0.3030700000        5.1885100000 H         0.0000000000         0.0000000000       -33.8952456986      -49.5127655411       -6.5418218931
atom         4.4831300000        5.3284300000        4.0709000000 H         0.0000000000         0.0000000000       -28.3990003642      -60.1259800777        6.7474842515
atom         4.5219600000        3.5352800000        4.0191200000 H         0.0000000000         0.0000000000       -30.4089081912       57.4413423229       13.2722690642
atom         0.6068800000        1.1060700000        5.3483300000 H         0.0000000000         0.0000000000       -37.3671184208       53.2636322002       -2.8905761666
atom        -0.9493200000        1.9972700000        5.4682900000 H         0.0000000000         0.0000000000        68.0190449706       -5.6842255468      -12.5141776992
energy    -10607.1826581562
charge 0
end
begin
comment generated by PY
lattice         8.9808765390         0.0000000000         0.0000000000
lattice        -4.5194083500         7.8121694800         0.0000000000
lattice        -0.0482759780        -2.4849568800         6.4060730830
atom         4.3272200000        1.2440400000        1.2556200000 C         0.0000000000         0.0000000000        75.0748939792        9.1177935300       67.1565553386
atom         2.3302800000        0.0334400000        1.6788300000 C         0.0000000000         0.0000000000       -40.7044202948      -45.9642713677      -14.4604958789
atom         2.3675100000        2.4006300000        1.7090800000 C         0.0000000000         0.0000000000       -47.7345735575       94.5232628146      -24.9172952155
atom         0.0250000000        3.9370700000        5.1208900000 C         0.0000000000         0.0000000000       -39.4898225032      -19.0524993778      -72.7386125449
atom         1.9154400000        5.3270300000        4.8049400000 C         0.0000000000         0.0000000000        53.1344847600      107.5532769653       13.7443445064
atom         2.2251900000        3.0600500000        5.0524600000 C         0.0000000000         0.0000000000        64.9623214165      -58.1917536668      -84.5152778186
atom         3.7159300000        0.0456300000        1.4745600000 C         0.0000000000         0.0000000000        57.6823669516     -128.0986891225       14.3111008681
atom         1.5980900000        1.2509000000        1.8381300000 C         0.0000000000         0.0000000000      -101.1536513284      -10.8540748976       67.1593769722
atom         3.7156600000        2.4631100000        1.2817200000 C         0.0000000000         0.0000000000        41.8761184486      119.0464781847       36.2871697038
atom         0.5632000000        5.2027600000        4.8306000000 C         0.0000000000         0.0000000000      -101.8089193645       87.1759076375      -36.1914096429
atom         2.8410900000        4.3005300000        4.8063100000 C         0.0000000000         0.0000000000        74.1545665301      -18.2152473314      -96.2287687973
atom         0.8743800000        2.8618000000        5.2792900000 C         0.0000000000         0.0000000000       -66.6899858457     -134.1105615355      -29.3807225026
atom         5.9677300000        1.2466800000        1.5348500000 N         0.0000000000         0.0000000000        96.7377680927       -2.1345590964      -30.2711166487
atom        -2.9423700000        6.4614000000        1.7190700000 N         0.0000000000         0.0000000000        13.9042983528      -12.5212952523       -3.3232311164
atom         1.5934800000        3.7544300000        1.8668100000 N         0.0000000000         0.0000000000       -32.0813480049       30.3511745256       28.8991900110
atom        -1.4761200000        3.6186700000        4.7338700000 N         0.0000000000         0.0000000000        -5.6136248873      -26.7606813094       15.0855640244
atom         6.9537500000       -1.0072300000        4.7518900000 N         0.0000000000         0.0000000000        -3.3472385305       80.2389115731       -5.2100250887
atom         3.0840600000        1.8473000000        4.5691300000 N         0.0000000000         0.0000000000        34.7690075898      -51.5738516605        3.1498927500
atom        -0.0934100000        6.6894500000        1.5293900000 N         0.0000000000         0.0000000000      -127.0110670253      181.9044613171       -7.6156575751
atom         0.2956800000        1.3029900000        2.2717300000 N         0.0000000000         0.0000000000       221.3384925754      -15.2474993871      -72.5784080271
atom         4.3934700000        3.6506300000        1.1104400000 N         0.0000000000         0.0000000000       -84.5286555748     -219.4239862202       10.4187590221
atom         4.2853900000       -1.5670100000        4.5111800000 N         0.0000000000         0.0000000000       151.7056427641     -183.8790707182       63.7136208141
atom         4.1309400000        4.4279300000        4.2695400000 N         0.0000000000         0.0000000000      -246.2637422304        9.5259878420      115.2437768093
atom         0.3482500000        1.5510100000        5.4449400000 N         0.0000000000         0.0000000000       100.2478733836      230.8609728166      -25.9898404594
atom         6.6298400000        2.3008300000        1.4807400000 O         0.0000000000         0.0000000000      -166.4024535618     -237.4446844770       11.0585829322
atom         6.5130100000        0.1682900000        1.6864800000 O         0.0000000000         0.0000000000      -121.4499526080      238.7826802050      -23.9813887491
atom        -2.3168500000        5.4607900000        1.3293200000 O         0.0000000000         0.0000000000      -144.0224146423      219.6418339753       87.3866249963
atom        -4.0786100000        6.4564600000        2.1192100000 O         0.0000000000         0.0000000000       238.5183001789       -5.4676368699      -86.3896911593
atom         0.3512300000        3.6865600000        1.8461100000 O         0.0000000000         0.0000000000       276.2725848007       26.2023801272       10.5388221018
atom         2.2010500000        4.8332600000        2.0947300000 O         0.0000000000         0.0000000000      -135.0153871592     -252.1029612136      -62.7608029438
atom        -1.8331800000        2.4322800000        4.9060100000 O         0.0000000000         0.0000000000        62.7151148819      291.5087188889      -47.0323884185
atom        -2.1551200000        4.5375200000        4.3069200000 O         0.0000000000         0.0000000000       147.7793438191     -213.9759374466       89.4218790350
atom         6.1342400000       -0.0666200000        5.0484100000 O         0.0000000000         0.0000000000       187.7099775962     -220.4564677166      -65.8154045865
atom         8.1086000000       -0.7211600000        4.4209600000 O         0.0000000000         0.0000000000      -257.4938286984      -82.7168942826       74.6276934063
atom         4.3207000000        1.9444800000        4.5436300000 O         0.0000000000         0.0000000000      -283.7226847787      -18.5917091734       -1.2983396629
atom         2.5200200000        0.7826600000        4.2462500000 O         0.0000000000         0.0000000000       120.9962110324      239.6035658671       82.7086043197
atom         0.8932800000        6.6871800000        1.7539500000 H         0.0000000000         0.0000000000       -64.6994001090        3.3432446046      -23.7514689013
atom        -0.6215100000        5.8367900000        1.3989800000 H         0.0000000000         0.0000000000        32.7316068724       54.0574223683       19.5535304227
atom        -0.1369000000        0.4375000000        2.5678200000 H         0.0000000000         0.0000000000        27.7905698459       59.3090711390      -20.1093475757
atom        -0.1655100000        2.2251600000        2.2907300000 H         0.0000000000         0.0000000000        36.9721000801      -67.6687807258       -3.6935482154
atom         4.0125700000        4.5491500000        1.3999400000 H         0.0000000000         0.0000000000        26.4355729549      -62.9749391757      -18.1960347928
atom         5.3687100000        3.5043500000        0.7563000000 H         0.0000000000         0.0000000000       -83.1453068652       23.1428890744       41.7568631931
atom        -1.1578200000        6.0847900000        4.3024900000 H         0.0000000000         0.0000000000        18.0516262651        2.7162244325       13.6717691941
atom         4.5780300000       -0.6409400000        4.6685300000 H         0.0000000000         0.0000000000        -6.2001474864      -40.3573315097      -10.8160945428
atom         4.4494400000        5.3773800000        4.2937200000 H         0.0000000000         0.0000000000        -9.5207135343      -57.1746572804      -10.5028111117
atom         4.6820000000        3.6173300000        4.1392100000 H         0.0000000000         0.0000000000       -20.1217152585       38.3920407375       17.2534941390
atom         0.9180500000        0.8385200000        5.0255600000 H         0.0000000000         0.0000000000       -36.6394825338       35.7299941339       27.9962784971
atom        -0.6142400000        1.4782900000        5.7319600000 H         0.0000000000         0.0000000000        63.2997470898        2.2303680545      -33.3755060210
energy    -10558.0455466337
charge 0
end
begin
comment generated by PY
lattice         8.9538528390         0.0000000000         0.0000000000
lattice        -4.5194083500         7.7886624510         0.0000000000
lattice        -0.0482759780        -2.4849568800         6.3867970350
atom         4.2318800000        1.2706700000        1.3415400000 C         0.0000000000         0.0000000000        64.6282906726       -2.1245153697       47.1491244437
atom         2.2132900000        0.0289900000        1.8641300000 C         0.0000000000         0.0000000000       -14.8993343925      -58.4773448715      -64.6143821545
atom         2.0863100000        2.3802600000        1.5261700000 C         0.0000000000         0.0000000000        -1.8148629177       52.8887741851       30.5595258386
atom         0.2341600000        3.6804800000        4.8738500000 C         0.0000000000         0.0000000000       -46.9074835596       -1.2790129170       28.7770769461
atom         1.9185200000        5.3345600000        4.7576900000 C         0.0000000000         0.0000000000        -6.3890805591       80.3595573454      -12.1274191528
atom         2.5206500000        3.0834200000        4.9986300000 C         0.0000000000         0.0000000000        32.7555033332      -41.0850240616     -118.3870345894
atom         3.5761000000        0.0815600000        1.6371800000 C         0.0000000000         0.0000000000       111.1502182111     -118.7293932962       27.9225196975
atom         1.4336700000        1.1824700000        1.7931600000 C         0.0000000000         0.0000000000      -127.9634302812       36.3586777152       99.2104023524
atom         3.4624300000        2.4155800000        1.3010400000 C         0.0000000000         0.0000000000        85.3656265682      162.2754941491      -24.1855131728
atom         0.5761800000        5.0446700000        4.8004100000 C         0.0000000000         0.0000000000      -103.6196101711       71.9075830183      -14.4414222054
atom         2.9237200000        4.4088100000        4.7512600000 C         0.0000000000         0.0000000000       116.3179033990        9.7026844663      -82.5158258130
atom         1.1847800000        2.6671400000        4.9748400000 C         0.0000000000         0.0000000000       -22.1305521591      -94.7556151303       87.8403935920
atom         5.7632600000        1.3308000000        1.3560500000 N         0.0000000000         0.0000000000        53.1023496070       51.5866388228      -18.1685595813
atom        -2.9876100000        6.3368700000        1.8414400000 N         0.0000000000         0.0000000000       -41.6531955827      -18.9882766312       23.2151930586
atom         1.3094400000        3.7846700000        1.7466200000 N         0.0000000000         0.0000000000       -32.6418502747       43.5046323029       17.7434237543
atom        -1.3553500000        3.3639600000        5.0824300000 N         0.0000000000         0.0000000000       -23.0423365786      -23.3446492560       16.3784273426
atom         6.7755000000       -0.8622000000        4.5516500000 N         0.0000000000         0.0000000000         6.5414198323       44.1007537491       -6.8497700929
atom         3.5730200000        1.9352300000        4.4489800000 N         0.0000000000         0.0000000000        61.5011649830      -68.6469373830      -17.6414847505
atom        -0.1547700000        6.7875200000        1.7844100000 N         0.0000000000         0.0000000000      -125.9094723396      167.3115703362      -43.3558616494
atom         0.1677400000        1.2546200000        2.2573300000 N         0.0000000000         0.0000000000       209.5025190789      -43.7831441473      -81.8148468746
atom         4.0879300000        3.6428500000        1.0707000000 N         0.0000000000         0.0000000000       -80.7622602127     -197.2599016316       29.9350935746
atom         4.1011600000       -1.7951300000        4.7419100000 N         0.0000000000         0.0000000000       166.1681897953     -228.2050813693       11.3594720705
atom         4.1905300000        4.6943700000        4.3350100000 N         0.0000000000         0.0000000000      -206.5312745281      -31.4993300329       63.3863131217
atom         0.8971300000        1.3825900000        5.3202600000 N         0.0000000000         0.0000000000        11.3273023121      207.6922186010      -67.5862476202
atom         6.2790700000        2.5124600000        1.2359000000 O         0.0000000000         0.0000000000      -112.8143802821     -271.9045907652       23.3306704330
atom         6.5352300000        0.3334500000        1.4342700000 O         0.0000000000         0.0000000000      -192.5770374194      218.0474931512      -13.6094560017
atom        -2.2832900000        5.3219500000        1.8282300000 O         0.0000000000         0.0000000000      -172.0401572905      237.5764901189       -0.4494318983
atom         4.7000600000        6.3602500000        1.8965500000 O         0.0000000000         0.0000000000       293.8756658038      -13.7251388214      -12.3104439664
atom         0.0755500000        3.7057700000        1.9682900000 O         0.0000000000         0.0000000000       284.6892380467       28.0242282237      -49.7450982867
atom         1.9417700000        4.8851600000        1.7456100000 O         0.0000000000         0.0000000000      -151.7023425839     -266.4558695159       -2.4786663631
atom        -1.6083400000        2.2991100000        5.6608600000 O         0.0000000000         0.0000000000        45.5621439015      252.1641771581     -139.1075423153
atom        -2.1825700000        4.2027000000        4.6752400000 O         0.0000000000         0.0000000000       189.3775978313     -202.4289020511      102.6683989852
atom         5.8579100000       -0.0573300000        4.6882500000 O         0.0000000000         0.0000000000       220.2999942784     -182.3914249804      -33.7005822859
atom         7.9372300000       -0.5583300000        4.2672500000 O         0.0000000000         0.0000000000      -262.7879217512      -64.6139758138       63.7691338407
atom         4.7145400000        2.2539200000        4.1242000000 O         0.0000000000         0.0000000000      -265.4603277479      -68.1557940638       71.5129105686
atom         3.2042900000        0.7106300000        4.3829800000 O         0.0000000000         0.0000000000        77.4533112647      287.4711001122       16.8613704237
atom         0.8734400000        6.9082300000        1.7557900000 H         0.0000000000         0.0000000000       -77.1568990257       -5.4789868994       -9.8237617968
atom        -0.5756000000        5.8730500000        1.6551700000 H         0.0000000000         0.0000000000        30.1575455074       59.0198560363       20.5819046305
atom        -0.2751900000        0.3621300000        2.4543900000 H         0.0000000000         0.0000000000        26.2900166901       64.1522098388       -8.4615107448
atom        -0.3009500000        2.1588300000        2.3443900000 H         0.0000000000         0.0000000000        34.2576879721      -57.3331978822      -13.0960143477
atom         3.5485100000        4.4835400000        1.0885200000 H         0.0000000000         0.0000000000        26.6587857446      -49.2650365252        2.4933465127
atom         5.1278200000        3.7108300000        0.9379600000 H         0.0000000000         0.0000000000       -90.7083915801      -18.5704573565       19.5189813001
atom        -1.3590300000        5.6342300000        4.6178500000 H         0.0000000000         0.0000000000        57.3150450015       25.9811139086        5.9764285764
atom         4.3889600000       -0.8852000000        4.6667600000 H         0.0000000000         0.0000000000        -9.3008619126       -0.1217602492       -1.8316536247
atom         4.4597000000        5.6506500000        4.1146300000 H         0.0000000000         0.0000000000       -26.9547582472      -70.9836968260       15.0763479096
atom         4.8250500000        3.9280400000        4.1285800000 H         0.0000000000         0.0000000000       -44.7394950675       46.7734204782       17.6716843011
atom         1.5076600000        0.6571800000        4.9848900000 H         0.0000000000         0.0000000000       -35.4253902401       46.8420954388       24.1335869785
atom        -0.0809900000        1.2192200000        5.5636700000 H         0.0000000000         0.0000000000        71.6362538095        5.8661025703      -30.7687548431
energy    -10516.4601731033
charge 0
end
begin
comment generated by PY
lattice         8.9268291380         0.0000000000         0.0000000000
lattice        -4.5194083500         7.7651554210         0.0000000000
lattice        -0.0482759780        -2.4849568800         6.3675209880
atom         4.2508800000        1.5852500000        1.4242800000 C         0.0000000000         0.0000000000        92.5300983495       18.6890014824      -31.0727145812
atom         2.2244900000        0.3819700000        1.8028200000 C         0.0000000000         0.0000000000       -41.8152195551      -43.6693988698      -89.9076356598
atom         2.2176800000        2.7196600000        1.5234600000 C         0.0000000000         0.0000000000       -55.8637433936       77.8115191423       29.9488157287
atom         0.1126100000        3.4183100000        5.0441900000 C         0.0000000000         0.0000000000       -52.3564200008      -43.6623447213        1.2448128839
atom         1.8221600000        5.0615800000        4.8285000000 C         0.0000000000         0.0000000000        22.1049685035       47.5922085966      -67.7231476939
atom         2.4067000000        2.7242300000        4.7063200000 C         0.0000000000         0.0000000000        32.7610084835      -29.9604499036        1.6609154536
atom         3.6009100000        0.4175000000        1.4860200000 C         0.0000000000         0.0000000000        38.2265323423     -183.2136408400       66.7773149583
atom         1.4628100000        1.5353200000        1.6508700000 C         0.0000000000         0.0000000000      -110.0775949346        6.5547841445       88.9742762811
atom         3.5961800000        2.7661700000        1.2795900000 C         0.0000000000         0.0000000000        23.6568655441      123.2196035688      -56.7944177167
atom         0.4603100000        4.7448600000        4.7647000000 C         0.0000000000         0.0000000000       -88.4991921669      102.7930291867       29.9907688689
atom         2.7918200000        4.0446000000        4.6847200000 C         0.0000000000         0.0000000000       120.1399725020       34.3147748841     -135.3744356003
atom         1.0992200000        2.4169400000        5.0409700000 C         0.0000000000         0.0000000000       -10.7224479890     -159.7903559646       -9.0406249267
atom         5.8180800000        1.6219500000        1.3197700000 N         0.0000000000         0.0000000000        39.0688086477       -0.3985887651       -5.3881465786
atom        -3.0654900000        6.7474700000        1.8649500000 N         0.0000000000         0.0000000000       -27.4703086866      -17.0425839234       47.3833539304
atom         1.4940300000        4.0671800000        1.7780200000 N         0.0000000000         0.0000000000         2.3638629989       19.0567770670       33.0524256962
atom        -1.3390100000        2.9843500000        5.2723400000 N         0.0000000000         0.0000000000       -32.2560619869       -2.9704008085       22.5885721321
atom         6.8039200000       -1.2052100000        4.5340000000 N         0.0000000000         0.0000000000         6.1388398141       21.0620758111       46.8742998148
atom         3.4663200000        1.5705500000        4.4168100000 N         0.0000000000         0.0000000000        -2.8321732378       22.9508741562       67.2086435277
atom        -0.2642300000        6.9636900000        1.5164200000 N         0.0000000000         0.0000000000       -78.0695269488      203.9085917444      -18.5990470917
atom         0.0809000000        1.5552900000        1.9154600000 N         0.0000000000         0.0000000000       238.1311429975        7.1998420448      -27.8278328109
atom         4.1604900000        3.9169100000        0.8397800000 N         0.0000000000         0.0000000000       -66.7674764929     -236.6880544454       65.9638568037
atom        -0.4945200000        5.7342400000        4.6480100000 N         0.0000000000         0.0000000000       183.8039914718     -173.6122957316        5.2569076541
atom         4.0245600000        4.3432800000        4.1318400000 N         0.0000000000         0.0000000000      -199.3119022250      -76.0178388157       88.3672639453
atom         0.8437200000        1.0687100000        5.2122500000 N         0.0000000000         0.0000000000        12.8010053790      192.3957226965       -6.2117381010
atom         6.3474100000        2.6998300000        1.1323400000 O         0.0000000000         0.0000000000      -116.4612517660     -244.1092753130       38.5045223907