begin
comment generated by PY
lattice         9.0079002400         0.0000000000         0.0000000000
lattice        -4.5194083500         7.8356765100         0.0000000000
lattice        -0.0482759780        -2.4849568800         6.4253491300
atom         4.4503000000        1.0557700000        1.5250600000 C         0.0000000000         0.0000000000        87.3563768015       -0.9634005143       17.7116077796
atom         2.4291700000       -0.1969800000        1.5829500000 C         0.0000000000         0.0000000000       -38.0749018540      -74.0280488064       -0.3488138492
atom         2.3736500000        2.1714700000        1.6597500000 C         0.0000000000         0.0000000000       -50.5617735126       80.5105302765        3.0868388358
atom        -0.0100800000        4.2949500000        4.9002900000 C         0.0000000000         0.0000000000       -87.3563537410        0.9654990242      -17.7135218051
atom         2.0110500000        5.5477000000        4.8424000000 C         0.0000000000         0.0000000000        38.0743484008       74.0293401971        0.3483065172
atom         2.0665700000        3.1792500000        4.7656000000 C         0.0000000000         0.0000000000        50.5541635318      -80.5085701299       -3.0868157753
atom         3.8220700000       -0.1770600000        1.5374800000 C         0.0000000000         0.0000000000        34.3099906644      -64.0709884463      -17.6504281457
atom         1.6934000000        0.9688400000        1.7933600000 C         0.0000000000         0.0000000000       -76.9317177094      -14.6280896627       38.1542531997
atom         3.7355600000        2.2337600000        1.4378700000 C         0.0000000000         0.0000000000        45.2338414394       66.9096266039      -23.3931733566
atom         0.6181500000        5.5277800000        4.8878700000 C         0.0000000000         0.0000000000       -34.3110975707       64.0712190518       17.6500130558
atom         2.7468200000        4.3818800000        4.6319800000 C         0.0000000000         0.0000000000        76.9253760587       14.6240079457      -38.1497102717
atom         0.7046500000        3.1169600000        4.9874800000 C         0.0000000000         0.0000000000       -45.2222419837      -66.9078048206       23.3918358448
atom         6.0193500000        1.1230600000        1.6361200000 N         0.0000000000         0.0000000000       -66.2022673541       -7.5888804426      -11.6139837953
atom        -2.8214700000        6.2234400000        1.5883700000 N         0.0000000000         0.0000000000        28.0864330275       62.6359074830        1.5746895210
atom         1.5831400000        3.4971900000        1.7855700000 N         0.0000000000         0.0000000000        26.4655993499      -54.1461206112      -10.8426315249
atom        -1.5791400000        4.2276600000        4.7892200000 N         0.0000000000         0.0000000000        66.2106844542        7.5904946809       11.6182961178
atom         7.2616800000       -0.8727200000        4.8369800000 N         0.0000000000         0.0000000000       -28.0827202792      -62.6472993937       -1.5766496676
atom         2.8570700000        1.8535300000        4.6397800000 N         0.0000000000         0.0000000000       -26.4528238063       54.1508941447       10.8416399213
atom         0.0294000000        6.5074700000        1.3895100000 N         0.0000000000         0.0000000000       -23.2973106585       33.1489151326       11.5769254947
atom         0.3912400000        0.9291400000        2.2479800000 N         0.0000000000         0.0000000000        45.3226245492       -3.3851270243      -20.1714072544
atom         4.3805500000        3.3907300000        1.0741800000 N         0.0000000000         0.0000000000       -25.5187793696      -34.5928974674        3.1013900416
atom         4.4108200000       -1.1567500000        5.0358400000 N         0.0000000000         0.0000000000        23.2924448829      -33.1481771950      -11.5771330396
atom         4.0489800000        4.4215800000        4.1773700000 N         0.0000000000         0.0000000000       -45.3176204103        3.3820599715       20.1690320179
atom         0.0596700000        1.9599900000        5.3511700000 N         0.0000000000         0.0000000000        25.5023833200       34.5943733425       -3.0991762290
atom         6.5523400000        2.2307700000        1.7575300000 O         0.0000000000         0.0000000000        13.2353709260        2.0228251505        4.7607809554
atom         6.6688200000        0.0558600000        1.5851400000 O         0.0000000000         0.0000000000         7.2543871936        2.3315367068        4.0664278548
atom        -2.1978500000        5.2280800000        1.1686600000 O         0.0000000000         0.0000000000        -6.7986185227       -2.6051501089        1.7761695290
atom        -3.9933400000        6.1686500000        2.0042100000 O         0.0000000000         0.0000000000         1.7532473443       -5.9310576460       -6.0962403514
atom         0.3730300000        3.4462900000        2.0991200000 O         0.0000000000         0.0000000000         4.2546711082       16.0550302526       -0.9367655813
atom         2.1806000000        4.5734400000        1.5693000000 O         0.0000000000         0.0000000000        -7.1764194808        4.4126128016        0.0130983913
atom        -2.1121200000        3.1199500000        4.6678200000 O         0.0000000000         0.0000000000       -13.2384610395       -2.0258230218       -4.7623721333
atom        -2.2286000000        5.2948600000        4.8402100000 O         0.0000000000         0.0000000000        -7.2597372408       -2.3315597673       -4.0676961849
atom         6.6380600000        0.1226400000        5.2566900000 O         0.0000000000         0.0000000000         6.7945598663        2.6113995174       -1.7743246851
atom         8.4335500000       -0.8179300000        4.4211400000 O         0.0000000000         0.0000000000        -1.7507106840        5.9333637008        6.0961250486
atom         4.0671900000        1.9044300000        4.3262300000 O         0.0000000000         0.0000000000        -4.2624425129      -16.0556990085        0.9381261537
atom         2.2596200000        0.7772800000        4.8560600000 O         0.0000000000         0.0000000000         7.1729373381       -4.4137427684       -0.0130983913
atom         1.0422100000        6.5795900000        1.3935600000 H         0.0000000000         0.0000000000         1.2749485179       -2.2420848410        0.8077187547
atom        -0.4860700000        5.6521500000        1.2390300000 H         0.0000000000         0.0000000000         0.5771363351       -9.3432577537        2.5910370535
atom        -0.0444100000        0.0198000000        2.3541600000 H         0.0000000000         0.0000000000        -1.8199845702       -0.5603021350       -0.2023101877
atom        -0.0832700000        1.8125600000        2.4080200000 H         0.0000000000         0.0000000000        -4.0253108977       -0.3725892742       -3.0268352899
atom         3.8300300000        4.2421300000        1.0731500000 H         0.0000000000         0.0000000000         2.4523509178        4.9600010297        1.4615544725
atom         5.3872100000        3.3521700000        0.9548900000 H         0.0000000000         0.0000000000         2.4944364179        6.9664070701        4.3466365737
atom         3.3980000000       -1.2288700000        5.0317900000 H         0.0000000000         0.0000000000        -1.2674769004        2.2423615676       -0.8076265125
atom         4.9262900000       -0.3014300000        5.1863200000 H         0.0000000000         0.0000000000        -0.5790734211        9.3401215191       -2.5918672333
atom         4.4846200000        5.3309200000        4.0711900000 H         0.0000000000         0.0000000000         1.8218524746        0.5628157348        0.2017336740
atom         4.5234800000        3.5381500000        4.0173300000 H         0.0000000000         0.0000000000         4.0234660539        0.3755640849        3.0273426219
atom         0.6101800000        1.1085900000        5.3522000000 H         0.0000000000         0.0000000000        -2.4490993805       -4.9634601119       -1.4618773201
atom        -0.9470000000        1.9985500000        5.4704600000 H         0.0000000000         0.0000000000        -2.4866650132       -6.9668221599       -4.3470747241
energy     -7370.2191269223
charge 0
end
begin
comment generated by PY
lattice         9.0529397410         0.0000000000         0.0000000000
lattice        -4.5194083500         7.8748548930         0.0000000000
lattice        -0.0482759780        -2.4849568800         6.4574758760
atom         4.3768400000        1.1736800000        1.3821900000 C         0.0000000000         0.0000000000        99.3129942192       19.1491101005       27.4828923649
atom         2.3583800000       -0.0421600000        1.6129000000 C         0.0000000000         0.0000000000       -55.0052874485      -57.1034744700       -3.9583430663
atom         2.3848100000        2.3252000000        1.7169000000 C         0.0000000000         0.0000000000       -51.6676882136       89.9112779763       -7.0376641634
atom         0.0739500000        4.1360300000        5.0954900000 C         0.0000000000         0.0000000000       -71.8092781794        3.9861771477      -47.1780301212
atom         2.0461700000        5.4489600000        4.8450400000 C         0.0000000000         0.0000000000        41.6007443423       96.6006817437       17.2603820366
atom         2.1784000000        3.1174200000        4.8408400000 C         0.0000000000         0.0000000000        75.8642449419      -71.4446909154        0.2045240003
atom         3.7400800000       -0.0394400000        1.4682500000 C         0.0000000000         0.0000000000        32.0377195660      -65.1555490799      -13.0551988644
atom         1.6429900000        1.1568000000        1.8469000000 C         0.0000000000         0.0000000000       -56.4830304257      -23.1780184436       27.2433393921
atom         3.7291100000        2.3867700000        1.3671900000 C         0.0000000000         0.0000000000        24.8030030199       52.8921341314        4.7132301054
atom         0.6739400000        5.3926900000        4.9489100000 C         0.0000000000         0.0000000000       -50.8286532348       50.0446637840       11.8664045539
atom         2.8471000000        4.3390100000        4.7186000000 C         0.0000000000         0.0000000000        70.6795649929      -13.8809740282      -40.7991827539
atom         0.8472800000        2.9969600000        5.1464100000 C         0.0000000000         0.0000000000       -57.4135004774      -81.9949146914       21.3422373980
atom         5.9678400000        1.2235900000        1.6420600000 N         0.0000000000         0.0000000000       -81.4773898730        0.9022670015      -29.8297873966
atom        -2.9370500000        6.4631800000        1.5716700000 N         0.0000000000         0.0000000000        66.6938029350       64.2950216703       -0.2491231002
atom         1.5904600000        3.6691300000        1.8420000000 N         0.0000000000         0.0000000000        38.0686524454      -53.4961821261       -0.1420299152
atom        -1.4505700000        3.9375800000        4.7282600000 N         0.0000000000         0.0000000000        62.5051311152        9.1820875836       34.3831848438
atom         7.2243800000       -0.9981400000        4.8632900000 N         0.0000000000         0.0000000000       -38.3411358808       -6.5550068935       -0.4899213425
atom         3.0237200000        1.8386400000        4.6598600000 N         0.0000000000         0.0000000000       -17.8348433482       42.9176399970        4.8105225575
atom        -0.0632100000        6.6796600000        1.3202800000 N         0.0000000000         0.0000000000       -29.2649423336       18.7949000830        8.7578426818
atom         0.3423800000        1.1722700000        2.3018900000 N         0.0000000000         0.0000000000        39.1757432344      -12.1090015189      -12.0163211765
atom         4.4053100000        3.5486900000        1.1329700000 N         0.0000000000         0.0000000000       -13.1424138570      -32.1310686644      -11.7008528797
atom         4.4431800000       -1.3306200000        5.0284100000 N         0.0000000000         0.0000000000        27.7428078015      -72.7149812026       -6.6939005742
atom         4.1453500000        4.3821200000        4.2522200000 N         0.0000000000         0.0000000000       -59.6387049973       23.9414609461       24.2210239697
atom         0.2456500000        1.7862900000        5.5105100000 N         0.0000000000         0.0000000000        52.9515611637       53.5956422696       -5.9115714829
atom         6.5676600000        2.2864300000        1.6445200000 O         0.0000000000         0.0000000000        13.8172577340       30.2626800039        5.0709914473
atom         6.5309600000        0.1539200000        1.7752400000 O         0.0000000000         0.0000000000        30.2148524273      -41.2670582125       12.8031009536
atom        -2.3184000000        5.4564400000        1.1629900000 O         0.0000000000         0.0000000000       -10.3519722448       -6.9228687554       -2.0767176512
atom        -4.0881300000        6.4542600000        1.9734900000 O         0.0000000000         0.0000000000       -33.4461425359      -11.8596708738        4.6813604281
atom         0.3521400000        3.5812600000        1.8727400000 O         0.0000000000         0.0000000000        -6.9637089859       28.5502267691        3.1792424517
atom         2.2174800000        4.7434200000        1.9761100000 O         0.0000000000         0.0000000000        -8.5839892104        0.4910743699      -10.5022808968
atom        -1.8701600000        2.7635400000        4.7088100000 O         0.0000000000         0.0000000000       -23.5704628497       24.4174537176      -12.4619432063
atom        -2.1324500000        4.9659400000        4.5541900000 O         0.0000000000         0.0000000000        -2.8049005758       -9.5963703286       -8.9142623790
atom         6.5450800000        0.0253500000        5.2264900000 O         0.0000000000         0.0000000000        19.2746517238      -33.3685437918       -1.3236062742
atom         8.3849200000       -0.8395300000        4.4628500000 O         0.0000000000         0.0000000000         9.8636190196      -13.1172778597       -1.5052772715
atom         4.2745100000        1.9092400000        4.5719200000 O         0.0000000000         0.0000000000       -13.8029832548      -10.7977326379        0.8751247365
atom         2.4177500000        0.7547700000        4.5383900000 O         0.0000000000         0.0000000000         2.0741809909      -10.1959445770        5.8163544802
atom         0.9436900000        6.7164400000        1.2636700000 H         0.0000000000         0.0000000000         4.3052890111        0.5165562755        3.9315005884
atom        -0.5996300000        5.8364900000        1.1524100000 H         0.0000000000         0.0000000000         1.1396522828       -6.5608873333        5.6323082465
atom        -0.1068000000        0.3113100000        2.5915500000 H         0.0000000000         0.0000000000         1.8322527818       -3.2777109917       -3.9381420262
atom        -0.1053300000        2.0697500000        2.4532000000 H         0.0000000000         0.0000000000        -2.3878275045       -2.0567010956       -4.1979190996
atom         3.9141400000        4.4269600000        1.2089300000 H         0.0000000000         0.0000000000        -1.1762493725        7.1053007507        4.2544635633
atom         5.3999600000        3.4823800000        0.8887200000 H         0.0000000000         0.0000000000        -8.3082542378        6.3514744968        6.0409872783
atom         3.5569700000       -1.3507900000        4.6333600000 H         0.0000000000         0.0000000000       -51.5116144247       -1.6230244296       -9.0552545695
atom         4.8628300000       -0.5007000000        5.3079000000 H         0.0000000000         0.0000000000        25.6216755348       45.5077776892        0.3691071315
atom         4.5189300000        5.2572400000        3.9483600000 H         0.0000000000         0.0000000000         4.8794735961       17.0565498527        0.2584856827
atom         4.7029800000        3.5651200000        4.2595100000 H         0.0000000000         0.0000000000        14.5385686153      -24.6685369644        1.0496700244
atom         0.8485100000        0.9850200000        5.3532900000 H         0.0000000000         0.0000000000        -8.9078284861      -10.4683357701        0.1814634523
atom        -0.7543400000        1.7965200000        5.6564600000 H         0.0000000000         0.0000000000        -4.2745723612      -10.9275635232       -3.3924141575
energy     -7342.1317735484
charge 0
end
begin
comment generated by PY
lattice         9.0979792420         0.0000000000         0.0000000000
lattice        -4.5194083500         7.9140332750         0.0000000000
lattice        -0.0482759780        -2.4849568800         6.4896026210
atom         4.3705700000        1.1763600000        1.4058200000 C         0.0000000000         0.0000000000        75.3346594568        6.4237231937       22.6270327700
atom         2.3939900000       -0.1349900000        1.7335200000 C         0.0000000000         0.0000000000       -55.7225627339      -77.4200248135      -11.5942670268
atom         2.2836100000        2.2349500000        1.7401300000 C         0.0000000000         0.0000000000       -69.9016865873       77.7059756089       -3.7478463840
atom         0.1372700000        4.3151000000        5.0615200000 C         0.0000000000         0.0000000000       -63.5256064858      -15.6719945501      -28.3084599837
atom         2.2007700000        5.5166100000        4.7628700000 C         0.0000000000         0.0000000000        48.6703934858       63.8678711394       24.4851594866
atom         2.2178200000        3.1455700000        4.8591700000 C         0.0000000000         0.0000000000        67.1843238518      -60.2618471257       -8.7466813766
atom         3.7492900000       -0.0721000000        1.5629800000 C         0.0000000000         0.0000000000        75.6427944993      -47.6418238628        8.2571751239
atom         1.6312100000        1.0199800000        1.8846100000 C         0.0000000000         0.0000000000       -70.8708522386       -1.5614297059       33.4850226198
atom         3.5966100000        2.3370100000        1.4138000000 C         0.0000000000         0.0000000000        68.9392084950       71.1606541455      -31.8100888966
atom         0.8256700000        5.5270100000        4.9653600000 C         0.0000000000         0.0000000000       -44.2063326016       41.5715727490      -16.4618644406
atom         2.9397800000        4.3291300000        4.6340500000 C         0.0000000000         0.0000000000        45.3951499727        6.2111280016      -27.1043073482
atom         0.8671500000        3.1245200000        5.1049100000 C         0.0000000000         0.0000000000       -46.8456123216      -97.6123249244       36.1217195584
atom         5.9259700000        1.3225600000        1.5437500000 N         0.0000000000         0.0000000000       -29.1587946311       -4.1094588374       -8.7406625736
atom        -2.8297400000        6.3428100000        1.7162100000 N         0.0000000000         0.0000000000        19.5705416154       65.0086764496        5.1609967662
atom         1.4103700000        3.5621800000        1.8022600000 N         0.0000000000         0.0000000000        28.5203172383      -47.1166660029        1.5721298002
atom        -1.4369600000        4.2674700000        4.8539300000 N         0.0000000000         0.0000000000        76.5677069590       10.5432364300       32.7913152145
atom         7.4719400000       -1.0177000000        4.7664200000 N         0.0000000000         0.0000000000       -41.1638161391      -56.9625284005      -11.7757074185
atom         3.0132300000        1.7794600000        4.7392700000 N         0.0000000000         0.0000000000       -77.6198444620       19.6092833360       -6.6654899791
atom         0.0183800000        6.7311200000        1.6070800000 N         0.0000000000         0.0000000000       -12.1939796384        8.7170024513       -2.2669441118
atom         0.3541400000        1.0169500000        2.3547700000 N         0.0000000000         0.0000000000        26.5040874045       -7.8112302465      -12.3331039245
atom         4.1389800000        3.5509300000        1.0584800000 N         0.0000000000         0.0000000000        -1.1864190741      -38.8627424162       -2.0131858415
atom         4.6205500000       -1.2342100000        4.9500800000 N         0.0000000000         0.0000000000        22.5472432739       -6.5616022103        7.9507235014
atom         4.2063500000        4.3318000000        4.1371200000 N         0.0000000000         0.0000000000       -19.1023202485       -8.3153107655       15.2074628709
atom         0.2960700000        1.8898300000        5.5066300000 N         0.0000000000         0.0000000000         6.3297514605       70.3340257415      -12.3312590807
atom         6.4498600000        2.4631100000        1.3832600000 O         0.0000000000         0.0000000000        -9.6526380658      -24.7394020284        4.3915585212
atom         6.6588600000        0.3130800000        1.7938400000 O         0.0000000000         0.0000000000       -20.1076217786       16.9855003043       -5.5300808371
atom        -2.1166200000        5.3178500000        1.6221200000 O         0.0000000000         0.0000000000       -28.0295887766        7.6543032173       -0.4322238514
atom         5.0165000000        6.3667700000        1.8011200000 O         0.0000000000         0.0000000000        18.5502507291      -19.6196836432       -3.8686605951
atom         0.1646600000        3.4234400000        1.8311700000 O         0.0000000000         0.0000000000        15.1677987284       27.2072957556        0.9990060004
atom         1.9911200000        4.6781200000        1.8646300000 O         0.0000000000         0.0000000000       -18.6192478888      -14.1065984299       -4.1423201183
atom        -2.0154200000        3.2149500000        5.1879200000 O         0.0000000000         0.0000000000       -10.6024789779        9.1664755926      -10.0659292073
atom        -1.9884600000        5.3349500000        4.5069300000 O         0.0000000000         0.0000000000       -15.3729453635      -21.1563463205       -4.6000258753
atom         6.8475100000        0.0164100000        4.9988200000 O         0.0000000000         0.0000000000       -14.5759267031       20.2845192424       11.5635042557
atom        -0.4414500000       -0.9729200000        4.4445800000 O         0.0000000000         0.0000000000        36.1005730359       -8.6159050088       -4.0795954277
atom         4.2262900000        1.8010800000        4.6209300000 O         0.0000000000         0.0000000000        30.9582091925       -3.2776879311       -3.0683212157
atom         2.3470600000        0.6847200000        4.6384100000 O         0.0000000000         0.0000000000        25.3264543992       25.5727871731       12.7990192366
atom         1.0337200000        6.8205500000        1.6863100000 H         0.0000000000         0.0000000000        -5.2467820048        5.9566779148       -3.5956237066
atom        -0.4140000000        5.8086900000        1.6081300000 H         0.0000000000         0.0000000000        -1.2357686469        1.8510471284        3.0535394045
atom        -0.0402000000        0.1339700000        2.6179200000 H         0.0000000000         0.0000000000        -8.1405348721      -10.6095124450       -0.4816656663
atom        -0.1962600000        1.8785500000        2.3872300000 H         0.0000000000         0.0000000000         4.9820469136       -6.4894457555       -2.8669103894
atom         3.5068500000        4.3305700000        1.0258900000 H         0.0000000000         0.0000000000         0.2910932976       13.8308403968        7.0440519352
atom         5.1497500000        3.6459200000        0.9065300000 H         0.0000000000         0.0000000000        -7.3394806158       -3.6174851061        3.6659353175
atom         3.6764500000       -1.2855800000        4.5618500000 H         0.0000000000         0.0000000000         0.9409626011        6.3015945314       13.1136112325
atom         5.1296600000       -0.3892300000        5.2282600000 H         0.0000000000         0.0000000000        -8.2112615728        0.3441556185      -16.5493330992
atom         4.6946900000        5.2205400000        4.0347200000 H         0.0000000000         0.0000000000        -1.5555723267       -0.5501554939       -0.4913510965
atom         4.6896600000        3.4288400000        4.0698800000 H         0.0000000000         0.0000000000        -0.0333916735       10.6171916075        4.5188296857
atom         0.8471100000        1.0173500000        5.4294800000 H         0.0000000000         0.0000000000       -12.0721277027       12.8216416342       -7.0072473006
atom        -0.7147400000        1.9930900000        5.6122300000 H         0.0000000000         0.0000000000        -1.2303263575      -17.0559502785        1.8713404106
energy     -7349.8986108563
charge 0
end
begin
comment generated by PY
lattice         9.1430187440         0.0000000000         0.0000000000
lattice        -4.5194083500         7.9532116580         0.0000000000
lattice        -0.0482759780        -2.4849568800         6.5217293670
atom         4.4160200000        1.2600200000        1.5795700000 C         0.0000000000         0.0000000000        80.5704415802      -15.4246240516       19.0978465022
atom         2.3781000000       -0.0352500000        1.8668800000 C         0.0000000000         0.0000000000       -22.2932543981      -55.8264043816      -35.5984757240
atom         2.3100400000        2.3547100000        1.6388100000 C         0.0000000000         0.0000000000       -31.3134338741       63.8137249727        0.7937901837
atom         0.1438500000        4.2110200000        5.0249900000 C         0.0000000000         0.0000000000       -78.8739693051       25.5461291796      -25.7745208471
atom         2.1294100000        5.5118100000        4.6901000000 C         0.0000000000         0.0000000000        65.0550973327       52.1044319324       20.8024360902
atom         2.2420300000        3.1318300000        4.8309600000 C         0.0000000000         0.0000000000        77.2038782970      -66.0503675244        4.7304102137
atom         3.7697100000        0.0276800000        1.6649900000 C         0.0000000000         0.0000000000        33.4641758844      -86.9778609664      -10.8462520309
atom         1.6257900000        1.1465200000        1.8338700000 C         0.0000000000         0.0000000000       -53.9160455237        2.1567146923       14.5475161079
atom         3.7012600000        2.4135200000        1.4361500000 C         0.0000000000         0.0000000000        25.3814768667       92.9162749272        3.8806751406
atom         0.7583800000        5.4903500000        4.8534500000 C         0.0000000000         0.0000000000       -43.6722964307       25.7573407388       25.0106632547
atom         2.9099000000        4.3296300000        4.6905100000 C         0.0000000000         0.0000000000        76.6829405174       30.7232683294      -26.4068410736
atom         0.8956300000        3.0800000000        5.0595600000 C         0.0000000000         0.0000000000       -63.3159169228     -110.3863004058      -15.0205801899
atom         6.0017200000        1.3269700000        1.7220300000 N         0.0000000000         0.0000000000       -70.2728230470       -3.0324620636      -24.3223750782
atom        -2.9103800000        6.5220900000        1.7155200000 N         0.0000000000         0.0000000000        68.1459948250       47.7440282116        4.9636676569
atom         1.5277800000        3.7083000000        1.8275200000 N         0.0000000000         0.0000000000        51.1439139866      -59.0626755685       -1.8474035618
atom        -1.4562400000        4.0515700000        4.8024200000 N         0.0000000000         0.0000000000        78.9536434985       -5.4236794686       25.7681100147
atom         7.4219100000       -1.0600800000        4.8411400000 N         0.0000000000         0.0000000000       -20.1332881685      -69.4585550967      -14.9092669246
atom         3.1133100000        1.8159400000        4.7183900000 N         0.0000000000         0.0000000000       -57.5243525317       34.1367367672       -8.0672715111
atom        -0.0158200000        6.8052700000        1.4718300000 N         0.0000000000         0.0000000000       -22.8790153781       52.2115020569       11.7048654150
atom         0.2925700000        1.1228200000        2.0826500000 N         0.0000000000         0.0000000000        35.6380706850       -8.1116630660       -6.5126677274
atom         4.3549100000        3.6230600000        1.2185400000 N         0.0000000000         0.0000000000       -48.6338886383      -41.9932348694       -1.2682840196
atom         4.5774700000       -1.3274500000        5.0292000000 N         0.0000000000         0.0000000000        12.8346016621       10.9232281402       -4.0964757489
atom         4.2590200000        4.4082200000        4.3866500000 N         0.0000000000         0.0000000000       -51.0211626896       -3.5194316560       12.7153325078
atom         0.2694300000        1.8234600000        5.0996000000 N         0.0000000000         0.0000000000        32.5643533010       55.6213730492       16.9958544904
atom         6.5836900000        2.3804800000        1.4703900000 O         0.0000000000         0.0000000000        10.1791103769       21.7331367474       -0.8612884077