begin
comment generated by PY
lattice        18.0158005000         0.0000000000         0.0000000000
lattice        -4.5194083500         7.8356765100         0.0000000000
lattice        -0.0965519570        -4.9699137600        12.8506983000
atom         4.3892900000        1.4075800000        1.5326800000 C         0.0000000000         0.0000000000        56.8442969708        2.0330179127       -6.5007915452
atom         2.2872900000        0.2161100000        1.6050700000 C         0.0000000000         0.0000000000       -29.6330117404      -42.8079179096        8.1840040051
atom         2.3103700000        2.6398600000        1.5589900000 C         0.0000000000         0.0000000000       -28.8501522565       48.6287461361       11.2869621640
atom         0.0524800000        3.9455400000        4.8928000000 C         0.0000000000         0.0000000000       -56.8434437306       -2.0548331912        6.5734553319
atom         2.1544300000        5.1371800000        4.8198400000 C         0.0000000000         0.0000000000        29.6664956562       42.7883164438       -8.0843132560
atom         2.1316100000        2.7134000000        4.8665500000 C         0.0000000000         0.0000000000        28.8392446173      -48.6147253229      -11.2431701833
atom         3.6897500000        0.1929600000        1.6127400000 C         0.0000000000         0.0000000000        14.5901320007      -24.3695800200        7.5625914178
atom         1.5905300000        1.4357700000        1.5881700000 C         0.0000000000         0.0000000000       -23.5147946868       -3.7724519887       -0.5871215524
atom         3.7102900000        2.6385100000        1.5131800000 C         0.0000000000         0.0000000000        18.1308024213       15.4982102603       -0.5002063469
atom         0.7519300000        5.1601400000        4.8118900000 C         0.0000000000         0.0000000000       -14.5685703883       24.4193446826       -7.6026014686
atom         2.8514100000        3.9175900000        4.8369100000 C         0.0000000000         0.0000000000        23.5096983057        3.7235405664        0.5852767085
atom         0.7315900000        2.7146900000        4.9121700000 C         0.0000000000         0.0000000000       -18.1190876629      -15.5363524067        0.3944737343
atom        13.3970000000        1.4070100000        1.5348400000 C         0.0000000000         0.0000000000        56.9343484108        2.0457012142       -6.5508790554
atom        11.2950000000        0.2157100000        1.6074700000 C         0.0000000000         0.0000000000       -29.6219426774      -42.8146285291        8.1302037466
atom        11.3182000000        2.6394000000        1.5615900000 C         0.0000000000         0.0000000000       -28.8661562768       48.6440814005       11.3123979484
atom         9.0603300000        3.9450500000        4.8954100000 C         0.0000000000         0.0000000000       -56.8202678798       -2.0085276108        6.5812728577
atom        11.1622000000        5.1367600000        4.8216900000 C         0.0000000000         0.0000000000        29.5907417559       42.8666300648       -8.1559623787
atom        11.1394000000        2.7130100000        4.8688400000 C         0.0000000000         0.0000000000        28.9139146718      -48.5976605173      -11.1954348489
atom        12.6975000000        0.1924700000        1.6153800000 C         0.0000000000         0.0000000000        14.5126024382      -24.4565874676        7.6329030287
atom        10.5983000000        1.4353900000        1.5906800000 C         0.0000000000         0.0000000000       -23.5637752908       -3.7898627025       -0.5597256213
atom        12.7181000000        2.6379500000        1.5155700000 C         0.0000000000         0.0000000000        18.1482823167       15.5325935374       -0.4625945931
atom         9.7596900000        5.1597000000        4.8146700000 C         0.0000000000         0.0000000000       -14.5782096973       24.3592719550       -7.5054012587
atom        11.8592000000        3.9172400000        4.8385800000 C         0.0000000000         0.0000000000        23.4449442869        3.6466797599        0.4400644377
atom         9.7394600000        2.7142600000        4.9148300000 C         0.0000000000         0.0000000000       -18.1719424390      -15.4994785904        0.4330079100
atom         4.3405800000       -1.0805800000        7.9584800000 C         0.0000000000         0.0000000000        56.8223894502        2.0130935993       -6.4705130456
atom         2.2388600000       -2.2724700000        8.0326900000 C         0.0000000000         0.0000000000       -29.6794095630      -42.8301943990        8.1225707052
atom         2.2613400000        0.1513000000        7.9844400000 C         0.0000000000         0.0000000000       -28.8830596585       48.5691115589       11.1134776613
atom         0.0046200000        1.4581600000       11.3185000000 C         0.0000000000         0.0000000000       -56.8594938720       -2.0377683856        6.4522952127
atom         2.1065100000        2.6497000000       11.2453000000 C         0.0000000000         0.0000000000        29.7106566056       42.7597905459       -8.1112479761
atom         2.0836400000        0.2259500000       11.2923000000 C         0.0000000000         0.0000000000        28.8927681493      -48.5872140891      -11.2256672273
atom         3.6413400000       -2.2952900000        8.0394500000 C         0.0000000000         0.0000000000        14.5697695368      -24.3714248638        7.4478421309
atom         1.5416800000       -1.0530200000        8.0160300000 C         0.0000000000         0.0000000000       -23.5825926980       -3.6390467185       -0.3644719613
atom         3.6613100000        0.1501300000        7.9378600000 C         0.0000000000         0.0000000000        18.1177270906       15.5198410543       -0.4602885383
atom         0.7040400000        2.6728000000       11.2377000000 C         0.0000000000         0.0000000000       -14.5455559614       24.4288225678       -7.6021171971
atom         2.8034600000        1.4300800000       11.2618000000 C         0.0000000000         0.0000000000        23.5376707504        3.7910618510        0.5686039323
atom         0.6837200000        0.2273200000       11.3389000000 C         0.0000000000         0.0000000000       -18.1373285564      -15.5726035882        0.5000449231
atom        13.3484000000       -1.0808900000        7.9607200000 C         0.0000000000         0.0000000000        56.8491396859        2.0867951107       -6.4623496116
atom        11.2472000000       -2.2735100000        8.0362400000 C         0.0000000000         0.0000000000       -29.7462390312      -42.8327771804        8.0434730255
atom        11.2686000000        0.1502400000        7.9869500000 C         0.0000000000         0.0000000000       -28.8599068683       48.5692960433       11.0855282771
atom         9.0124100000        1.4571200000       11.3211000000 C         0.0000000000         0.0000000000       -56.8571878172       -2.0267454437        6.3918304558
atom        11.1138000000        2.6493500000       11.2466000000 C         0.0000000000         0.0000000000        29.6870887255       42.8225152365       -8.1608512149
atom        11.0918000000        0.2256000000       11.2950000000 C         0.0000000000         0.0000000000        28.8952817490      -48.5570508923      -11.1328254610
atom        12.6497000000       -2.2958100000        8.0426600000 C         0.0000000000         0.0000000000        14.5618367082      -24.4420132013        7.4899045705
atom        10.5494000000       -1.0543300000        8.0198700000 C         0.0000000000         0.0000000000       -23.5351110296       -3.6838303027       -0.2771416660
atom        12.6686000000        0.1495200000        7.9397400000 C         0.0000000000         0.0000000000        18.1435779649       15.6207078913       -0.4660306148
atom         9.7113400000        2.6720000000       11.2401000000 C         0.0000000000         0.0000000000       -14.5917923601       24.3945776540       -7.5303758322
atom        11.8112000000        1.4299900000       11.2629000000 C         0.0000000000         0.0000000000        23.5663119511        3.7543033375        0.3862641792
atom         9.6919600000        0.2265700000       11.3425000000 C         0.0000000000         0.0000000000       -18.1475443792      -15.5559538725        0.6279156618
atom         5.8729200000        1.3803400000        1.4705200000 N         0.0000000000         0.0000000000       -27.8323288489       -2.8977654026       -6.0600352910
atom        -2.9954000000        6.7819400000        1.7214800000 N         0.0000000000         0.0000000000        12.4755950507       22.1143045455      -11.0490926112
atom         1.5801700000        3.9279500000        1.6415100000 N         0.0000000000         0.0000000000        11.0567025921      -26.1085528850       -2.6378269055
atom        -1.4310800000        3.9727600000        4.9561900000 N         0.0000000000         0.0000000000        27.8052096445        2.8798704174        6.1217683780
atom         7.4370700000       -1.4285500000        4.7049700000 N         0.0000000000         0.0000000000       -12.4698760348      -22.0962942575       11.0372394895
atom         2.8618200000        1.4251900000        4.7840700000 N         0.0000000000         0.0000000000       -11.0914317774       26.1433743125        2.5593288000
atom        -0.1617500000        6.8929000000        1.7500000000 N         0.0000000000         0.0000000000       -11.2557381820       10.2588998730       -5.4602765583
atom         0.2711500000        1.4539100000        1.6003100000 N         0.0000000000         0.0000000000         7.2589301216        2.4865035894       -0.1893732203
atom         4.3727400000        3.7789100000        1.4744200000 N         0.0000000000         0.0000000000        -5.8237338555       -4.7091483884       -5.1230621647
atom         4.6033500000       -1.5400300000        4.6733100000 N         0.0000000000         0.0000000000        11.2339920852      -10.2686314243        5.4118032864
atom         4.1708200000        3.8995900000        4.8241400000 N         0.0000000000         0.0000000000        -7.2747957786       -2.5465532564        0.1805410304
atom         0.0690400000        1.5742900000        4.9493100000 N         0.0000000000         0.0000000000         5.8946450407        4.6905846473        5.1327706554
atom        14.8806000000        1.3796300000        1.4717400000 N         0.0000000000         0.0000000000       -27.7504639035       -2.8933608380       -6.0538089430
atom         6.0121400000        6.7816100000        1.7238100000 N         0.0000000000         0.0000000000        12.4944355184       22.1223296162      -11.0309670205
atom        10.5881000000        3.9274800000        1.6443500000 N         0.0000000000         0.0000000000        10.9668125759      -26.1541897095       -2.6387723879
atom         7.5767600000        3.9721800000        4.9589600000 N         0.0000000000         0.0000000000        27.8127504437        2.9047296881        6.0656159436
atom        16.4446000000       -1.4290000000        4.7055100000 N         0.0000000000         0.0000000000       -12.4633037786      -22.0917743901       11.0347950714
atom        11.8695000000        1.4247800000        4.7863600000 N         0.0000000000         0.0000000000       -11.0241410983       26.1194605242        2.5782384494
atom         8.8458200000        6.8924200000        1.7536100000 N         0.0000000000         0.0000000000       -11.2420632770       10.2991635899       -5.4602073767
atom         9.2788800000        1.4535800000        1.6032900000 N         0.0000000000         0.0000000000         7.3033447371        2.4963735040       -0.1776584619
atom        13.3806000000        3.7783200000        1.4773700000 N         0.0000000000         0.0000000000        -5.7367955895       -4.6945049405       -5.1172047855
atom        13.6109000000       -1.5404200000        4.6774500000 N         0.0000000000         0.0000000000        11.3355507386      -10.2368309286        5.4041241239
atom        13.1785000000        3.8993600000        4.8239700000 N         0.0000000000         0.0000000000        -7.1898407198       -2.5216248040        0.2495843111
atom         9.0769100000        1.5739000000        4.9528000000 N         0.0000000000         0.0000000000         5.8891105091        4.6662557691        5.1567305648
atom         5.8241900000       -1.1075100000        7.8958800000 N         0.0000000000         0.0000000000       -27.7929644935       -2.9125933350       -6.0845255930
atom        -3.0435700000        4.2932000000        8.1485200000 N         0.0000000000         0.0000000000        12.4821211858       22.1402015409      -11.1152072024
atom         1.5311900000        1.4396000000        8.0664600000 N         0.0000000000         0.0000000000        11.0384155775      -26.0996284529       -2.5891922097
atom        -1.4789800000        1.4852800000       11.3807000000 N         0.0000000000         0.0000000000        27.8142032582        2.9059288366        6.0629409200
atom         7.3893800000       -3.9161000000       11.1295000000 N         0.0000000000         0.0000000000       -12.4624274778      -22.1760606931       11.1121632100
atom         2.8139100000       -1.0621700000       11.2102000000 N         0.0000000000         0.0000000000       -11.0308517177       26.0986368494        2.5719890409
atom        -0.2099300000        4.4047300000        8.1759000000 N         0.0000000000         0.0000000000       -11.2669225477       10.2567321815       -5.3984051080
atom         0.2222400000       -1.0354900000        8.0326900000 N         0.0000000000         0.0000000000         7.3585286285        2.6140976016       -0.2438191741
atom         4.3237800000        1.2905300000        7.8981700000 N         0.0000000000         0.0000000000        -5.9027854141       -4.6663710719       -5.1897763301
atom         4.5556300000       -4.0271500000       11.0999000000 N         0.0000000000         0.0000000000        11.2444154529      -10.3231004387        5.4449874150
atom         4.1229100000        1.4122500000       11.2477000000 N         0.0000000000         0.0000000000        -7.2909151017       -2.5359454043        0.1671197914
atom         0.0212900000       -0.9131200000       11.3789000000 N         0.0000000000         0.0000000000         5.8650583576        4.7036138569        5.1529255744
atom        14.8320000000       -1.1072700000        7.8974200000 N         0.0000000000         0.0000000000       -27.7950168822       -2.9110021572       -6.0766158250
atom         5.9651900000        4.2919100000        8.1520900000 N         0.0000000000         0.0000000000        12.4334173084       22.1371344880      -11.1134315402
atom        10.5381000000        1.4383700000        8.0688700000 N         0.0000000000         0.0000000000        11.0820691949      -26.0759913912       -2.5645866050
atom         7.5287800000        1.4836800000       11.3831000000 N         0.0000000000         0.0000000000        27.8164862524        2.9722048516        6.0195179081
atom        16.3960000000       -3.9162200000       11.1296000000 N         0.0000000000         0.0000000000       -12.4779011055      -22.1490337308       11.0920313516
atom        11.8222000000       -1.0624200000       11.2132000000 N         0.0000000000         0.0000000000       -10.9654981247       26.0556750484        2.5619577025
atom         8.7988000000        4.4045400000        8.1799300000 N         0.0000000000         0.0000000000       -11.2255519246       10.3308026617       -5.3907490060
atom         9.2299900000       -1.0374200000        8.0390000000 N         0.0000000000         0.0000000000         7.3567529663        2.6557218907       -0.2483621021
atom        13.3307000000        1.2902000000        7.8994900000 N         0.0000000000         0.0000000000        -5.9836126349       -4.7025991928       -5.1962563441
atom        13.5624000000       -4.0281100000       11.1035000000 N         0.0000000000         0.0000000000        11.2941109338      -10.3103248951        5.4469475615
atom        13.1306000000        1.4127200000       11.2458000000 N         0.0000000000         0.0000000000        -7.3337154788       -2.5398656975        0.2409596662
atom         9.0299200000       -0.9140200000       11.3853000000 N         0.0000000000         0.0000000000         5.8591548573        4.7014922865        5.1793529624
atom         6.5422300000        2.4337700000        1.6275900000 O         0.0000000000         0.0000000000        -4.8463586491        1.2304416603        2.4322882410
atom         6.4779900000        0.2963500000        1.1987800000 O         0.0000000000         0.0000000000        -3.7336872075       10.3321632341        4.7663616081
atom        -2.4027900000        5.7163200000        2.0400200000 O         0.0000000000         0.0000000000        -1.2800910201        2.9940662511        1.7657461613
atom         4.7807700000        6.7537700000        1.4442400000 O         0.0000000000         0.0000000000         8.0972502235        1.8605941953        2.2383951533
atom         0.3790500000        3.9556400000        2.0349400000 O         0.0000000000         0.0000000000         5.1730574328       -3.2411600231       -1.7261742609
atom         2.1449200000        5.0114300000        1.3234800000 O         0.0000000000         0.0000000000         2.8234643170       -4.8357969181       -0.0273728705
atom        -2.1006300000        2.9190400000        4.8017000000 O         0.0000000000         0.0000000000         4.8556520500       -1.1740586204       -2.4685394225
atom        -2.0358700000        5.0570400000        5.2274800000 O         0.0000000000         0.0000000000         3.7096811771      -10.3494586451       -4.8297550546
atom         6.8444300000       -0.3625100000        4.3879300000 O         0.0000000000         0.0000000000         1.2472758603       -2.9832739147       -1.7862008674
atom        -0.3392000000       -1.4012200000        4.9824100000 O         0.0000000000         0.0000000000        -8.0687243256       -1.8389172801       -2.2055338724
atom         4.0629500000        1.3974000000        4.3907300000 O         0.0000000000         0.0000000000        -5.1502966719        3.2701010109        1.7623793213
atom         2.2968500000        0.3416800000        5.1016000000 O         0.0000000000         0.0000000000        -2.8237179830        4.8345055274        0.0621251163
atom        15.5502000000        2.4332700000        1.6266300000 O         0.0000000000         0.0000000000        -4.8884902703        1.2001631607        2.4462398726
atom        15.4855000000        0.2952600000        1.2010400000 O         0.0000000000         0.0000000000        -3.7562865446       10.3690370503        4.7676760593
atom         6.6044300000        5.7161100000        2.0433100000 O         0.0000000000         0.0000000000        -1.2852565829        2.9924520128        1.7321700034
atom        -4.2269900000        6.7540900000        1.4429800000 O         0.0000000000         0.0000000000         8.0685167807        1.8495943139        2.2096617105
atom         9.3868900000        3.9551900000        2.0375900000 O         0.0000000000         0.0000000000         5.1935582600       -3.2471327050       -1.7085098811
atom        11.1528000000        5.0109400000        1.3264000000 O         0.0000000000         0.0000000000         2.8770339700       -4.7560304826       -0.0300478941
atom         6.9073000000        2.9188100000        4.8020600000 O         0.0000000000         0.0000000000         4.8488722489       -1.1936139651       -2.4431728197
atom         6.9719900000        5.0560000000        5.2321500000 O         0.0000000000         0.0000000000         3.7319346059      -10.3475676801       -4.8323147754
atom        15.8515000000       -0.3630400000        4.3889900000 O         0.0000000000         0.0000000000         1.2716047385       -2.9871480867       -1.7891295570
atom         8.6686400000       -1.4008600000        4.9837200000 O         0.0000000000         0.0000000000        -8.0726446187       -1.8682272366       -2.2303239615
atom        13.0707000000        1.3968300000        4.3930900000 O         0.0000000000         0.0000000000        -5.1867784589        3.2780568999        1.7520481958
atom        11.3045000000        0.3413000000        5.1039100000 O         0.0000000000         0.0000000000        -2.8274076707        4.8392329398        0.0829487912
atom         6.4934200000       -0.0539900000        8.0525200000 O         0.0000000000         0.0000000000        -4.8597107064        1.2176199956        2.4548645175
atom         6.4293700000       -2.1914200000        7.6240000000 O         0.0000000000         0.0000000000        -3.7265153771       10.3041216077        4.8157803625
atom        -2.4506300000        3.2273200000        8.4654300000 O         0.0000000000         0.0000000000        -1.2782461763        2.9447858600        1.7897983129
atom         4.7333100000        4.2636800000        7.8741300000 O         0.0000000000         0.0000000000         8.1679308031        1.8672817542        2.3043713812
atom         0.3303200000        1.4677200000        8.4606000000 O         0.0000000000         0.0000000000         5.1644558484       -3.2873964219       -1.7505723207
atom         2.0958200000        2.5229100000        7.7476000000 O         0.0000000000         0.0000000000         2.8447953239       -4.9017962065       -0.0716721832
atom        -2.1482000000        0.4315600000       11.2252000000 O         0.0000000000         0.0000000000         4.8335139239       -1.2183118120       -2.4476696265
atom        -2.0841500000        2.5695600000       11.6510000000 O         0.0000000000         0.0000000000         3.7110417494      -10.3281506987       -4.7628564048
atom         6.7971500000       -2.8505500000       10.8103000000 O         0.0000000000         0.0000000000         1.2627033669       -2.9390668441       -1.7538699791
atom        17.6277000000       -3.8879100000       11.4079000000 O         0.0000000000         0.0000000000        -8.1049524465       -1.8490869818       -2.2688120162
atom         4.0148200000       -1.0900200000       10.8161000000 O         0.0000000000         0.0000000000        -5.1927742014        3.2600235514        1.7427317344
atom         2.2494400000       -2.1455500000       11.5290000000 O         0.0000000000         0.0000000000        -2.8598769223        4.8449288951        0.0485424536
atom        15.5009000000       -0.0531700000        8.0517800000 O         0.0000000000         0.0000000000        -4.8446521686        1.2062050243        2.4612522893
atom        15.4375000000       -2.1913200000        7.6269600000 O         0.0000000000         0.0000000000        -3.7059914894       10.2964193846        4.7934346914
atom         6.5585400000        3.2261100000        8.4684700000 O         0.0000000000         0.0000000000        -1.2796528697        2.9372681214        1.7599118426
atom        13.7405000000        4.2653400000        7.8702500000 O         0.0000000000         0.0000000000         8.0882796703        1.8329445982        2.2775519639
atom         9.3373900000        1.4663300000        8.4632800000 O         0.0000000000         0.0000000000         5.0855887742       -3.2924697424       -1.7325850932
atom        11.1023000000        2.5218300000        7.7497100000 O         0.0000000000         0.0000000000         2.8871344900       -4.9082762205       -0.0931415534
atom         6.8600900000        0.4299400000       11.2259000000 O         0.0000000000         0.0000000000         4.8137279737       -1.2711665881       -2.4326110887
atom         6.9230700000        2.5674800000       11.6542000000 O         0.0000000000         0.0000000000         3.7621669843      -10.3247146771       -4.7376512258
atom        15.8029000000       -2.8508400000       10.8113000000 O         0.0000000000         0.0000000000         1.3038895057       -2.9513119951       -1.7447380020
atom         8.6206200000       -3.8882600000       11.4099000000 O         0.0000000000         0.0000000000        -8.1486521850       -1.8595564706       -2.2921262302
atom        13.0229000000       -1.0902300000       10.8185000000 O         0.0000000000         0.0000000000        -5.1404498179        3.2656503251        1.7200401551
atom        11.2583000000       -2.1458600000       11.5327000000 O         0.0000000000         0.0000000000        -2.9255764236        4.8852156725        0.0923574948
atom         0.8335200000        6.9430700000        1.5889800000 H         0.0000000000         0.0000000000        15.5879157920       -8.9202811820        1.4020813191
atom        -0.7183000000        6.0789500000        1.9513500000 H         0.0000000000         0.0000000000        -1.3359436674      -19.0014303510        0.7750880792
atom         8.8267800000        0.5874900000        1.3610600000 H         0.0000000000         0.0000000000       -18.4508597672      -10.8740861124        4.8578658626
atom        -0.1522900000        2.3321000000        1.8625300000 H         0.0000000000         0.0000000000       -16.5615551897        7.2807223395       -5.2021137233
atom         3.8171200000        4.5911200000        1.2490600000 H         0.0000000000         0.0000000000         2.4510825877       19.9640006856        4.3970699922
atom         5.3725700000        3.7206400000        1.5685400000 H         0.0000000000         0.0000000000        18.6294637116        8.7950854669       -1.0294228633
atom         3.6076500000       -1.5905100000        4.8318600000 H         0.0000000000         0.0000000000       -15.5213630505        8.9369770188       -1.3296250773
atom         5.1600300000       -0.7260900000        4.4722100000 H         0.0000000000         0.0000000000         1.3313776789       19.0030215288       -0.7942513946
atom        13.6310000000        4.7656100000        5.0651600000 H         0.0000000000         0.0000000000        18.3844915100       10.8421703139       -4.8782975081
atom         4.5943100000        3.0210600000        4.5629400000 H         0.0000000000         0.0000000000        16.5179246328       -7.2397898667        5.1980089458
atom         0.6247700000        0.7616800000        5.1729000000 H         0.0000000000         0.0000000000        -2.4441413627      -19.9747930220       -4.3306786745
atom        -0.9309000000        1.6326200000        4.8564300000 H         0.0000000000         0.0000000000       -18.6258662661       -8.7717712528        1.0244187243
atom         9.8415000000        6.9427000000        1.5949800000 H         0.0000000000         0.0000000000        15.5416793933       -8.9332181495        1.3398870211
atom         8.2890600000        6.0786200000        1.9549900000 H         0.0000000000         0.0000000000        -1.3350212455      -18.9964723332        0.8244607125
atom        -0.1809200000        0.5879400000        1.3575300000 H         0.0000000000         0.0000000000       -18.4345790203      -10.8591889983        4.8941401046
atom         8.8555200000        2.3315800000        1.8663300000 H         0.0000000000         0.0000000000       -16.5482261929        7.2768251069       -5.2069794989
atom        12.8249000000        4.5907100000        1.2528700000 H         0.0000000000         0.0000000000         2.4517744041       19.9755540201        4.3747243212
atom        14.3806000000        3.7199800000        1.5706800000 H         0.0000000000         0.0000000000        18.5358378866        8.7825635893       -1.0593554546
atom        12.6158000000       -1.5907400000        4.8392000000 H         0.0000000000         0.0000000000       -15.6353052182        8.9335640577       -1.3854546640
atom        14.1674000000       -0.7264100000        4.4760200000 H         0.0000000000         0.0000000000         1.3071179824       19.0031137710       -0.7560631271
atom         4.6230200000        4.7658700000        5.0657400000 H         0.0000000000         0.0000000000        18.3983047783       10.8554531896       -4.8406626938
atom        13.6018000000        3.0205700000        4.5635100000 H         0.0000000000         0.0000000000        16.5293626646       -7.2844350877        5.1781307534
atom         9.6325900000        0.7616400000        5.1778600000 H         0.0000000000         0.0000000000        -2.4671788502      -19.9718412719       -4.3843405697
atom         8.0770200000        1.6321200000        4.8592400000 H         0.0000000000         0.0000000000       -18.6200319474       -8.7804189583        1.0317519786
atom         0.7853100000        4.4552000000        8.0149700000 H         0.0000000000         0.0000000000        15.6049805976       -8.9256081686        1.3526625647
atom        -0.7664200000        3.5904700000        8.3760800000 H         0.0000000000         0.0000000000        -1.3296711984      -19.0281805867        0.8182574251
atom         8.7773300000       -1.9041900000        7.8000000000 H         0.0000000000         0.0000000000       -18.3654434974      -10.8812810033        4.8242205230
atom        -0.2008900000       -0.1565300000        8.2929500000 H         0.0000000000         0.0000000000       -16.5122517380        7.2542488303       -5.1862250057
atom         3.7681700000        2.1023700000        7.6712800000 H         0.0000000000         0.0000000000         2.4808768157       19.9248899961        4.4471575025
atom         5.3236200000        1.2324300000        7.9927900000 H         0.0000000000         0.0000000000        18.6047889252        8.7990980022       -1.0599550288