begin
comment generated by PY
lattice        11.4200000000         0.0000000000         0.0000000000
lattice         0.0000000000        10.5800000000         0.0000000000
lattice         0.0000000000         0.0000000000        13.1400000000
atom         5.9671800000       10.1430000000        1.1480500000 H         0.0000000000         0.0000000000        60.2570176866      -72.9769141535      134.4544980721
atom         0.3709200000        4.9630300000       12.3687000000 H         0.0000000000         0.0000000000        23.7088793456       93.9897001772      -23.3610016512
atom         7.0454100000        1.1789600000       11.7708000000 H         0.0000000000         0.0000000000        -0.0122947271       33.4602852813      -95.2622415353
atom         3.4725000000        2.8519900000       12.7539000000 H         0.0000000000         0.0000000000       -83.4660463089      103.0880213037       87.3248501125
atom        11.0660000000        6.9105800000        0.9816200000 H         0.0000000000         0.0000000000       -98.1146892993       43.0818148804       92.4552409971
atom         7.6644100000        5.8736800000       12.5714000000 H         0.0000000000         0.0000000000       -72.4965279810       31.4807536801       -4.3970688806
atom         1.3197000000        7.0232900000        4.2600000000 H         0.0000000000         0.0000000000       -37.2587052764       61.6733964632      -28.9575887446
atom         5.8821100000        3.3873300000       11.4826000000 H         0.0000000000         0.0000000000      -116.9566746342       39.4927325597      -20.0082047446
atom         2.3270000000        1.2931100000       10.4440000000 H         0.0000000000         0.0000000000        80.9020812561       -2.5642046319       51.3534672555
atom         4.8869300000        8.4180900000        1.3705100000 H         0.0000000000         0.0000000000      -104.3745303902       -5.1468494915      -55.1199342327
atom         8.9633800000        1.4649300000       11.9513000000 H         0.0000000000         0.0000000000        75.6892668661       26.6287188631       41.8016389001
atom         7.8164600000        2.0331000000        2.6284600000 H         0.0000000000         0.0000000000       -15.0117318182       32.0332022006        9.6908750820
atom         3.4389200000        1.3932300000        3.4374900000 H         0.0000000000         0.0000000000        25.7878333281       62.9810123104      -58.3699732018
atom         5.0999600000        7.6040400000       10.6491000000 H         0.0000000000         0.0000000000        -2.8716217823      -18.9418718819       30.3627388322
atom         0.4445800000        6.7836100000       11.6090000000 H         0.0000000000         0.0000000000        -3.9419890889      -56.8743217151       28.4010686070
atom         5.8264900000        9.3419000000        2.5308300000 H         0.0000000000         0.0000000000        68.5435511416       46.1932655134      -92.9427047554
atom         5.4189900000        0.7894000000       11.7619000000 H         0.0000000000         0.0000000000       -18.3934527677      -36.2189461527       31.3872067452
atom         4.8575300000        8.7274900000       11.6321000000 H         0.0000000000         0.0000000000        -6.4455010533       20.7768939092       12.6319594195
atom         3.2080300000        0.4973800000       11.5892000000 H         0.0000000000         0.0000000000       -30.9755634438      136.8542085978      -77.4703504396
atom         5.6129400000        7.4796700000       12.3402000000 H         0.0000000000         0.0000000000       -37.7428596002        8.2657306838      -71.3587642651
atom         3.2779300000        8.3094800000        7.3591300000 H         0.0000000000         0.0000000000         6.3921243710      -91.6880227855        9.5074310976
atom         9.4874200000        3.0876500000        2.3751400000 H         0.0000000000         0.0000000000        -2.1518434809      -26.4097095485       -3.5910893908
atom         4.8161100000        7.1825700000        3.3769300000 H         0.0000000000         0.0000000000        88.8039143929      -31.6725900535       -1.6004561464
atom         8.9684100000        2.2346700000        1.0787000000 H         0.0000000000         0.0000000000        25.5328360037       -3.4569204718       50.2914324282
atom         7.6537200000        1.1851800000        8.6036500000 H         0.0000000000         0.0000000000        -5.5744887156       25.0328349403      -13.9455808198
atom         4.0824500000        7.4041200000       12.0492000000 H         0.0000000000         0.0000000000        48.4352436036       27.9782820167      -42.9611506848
atom         4.0010900000        3.6182800000       11.1343000000 H         0.0000000000         0.0000000000        99.0126573109        2.7059521954       25.2351537538
atom         7.6159000000        2.1690700000       10.9797000000 H         0.0000000000         0.0000000000       -32.0099998293      -36.3527223062       -5.6853768379
atom         9.5905600000        1.4008500000        2.5016400000 H         0.0000000000         0.0000000000       -33.3063460088       81.9073286701      -48.9459170279
atom         7.6591900000        2.7287800000        7.8301400000 H         0.0000000000         0.0000000000       -46.4954535506      -69.4768340165       35.3786490583
atom         6.3370200000        5.7819800000        0.2592000000 H         0.0000000000         0.0000000000        39.4323759285       46.8619079070     -103.2570111742
atom         2.3043500000        3.8936900000       12.8581000000 H         0.0000000000         0.0000000000        72.3650301876      -59.3599517526       44.1877937748
atom         4.3071300000        2.7407700000        5.8071300000 H         0.0000000000         0.0000000000       -40.7822623134       43.8034801555     -104.1269157467
atom         3.5975800000        2.2859600000        1.9075800000 H         0.0000000000         0.0000000000       -13.3922994307      -12.6382617109       43.2723168452
atom         2.6466700000        9.6610200000        5.0020700000 H         0.0000000000         0.0000000000        96.7290478387     -137.8765898625      -44.2065515444
atom         6.3470800000        2.0811200000        8.9579200000 H         0.0000000000         0.0000000000        81.4106877598       -3.6556255764      -70.0591894805
atom         4.4197600000        4.9111000000        1.2783600000 H         0.0000000000         0.0000000000       137.8327322444        7.2140804677        8.7590733343
atom         3.9242600000        1.0089700000        6.6367900000 H         0.0000000000         0.0000000000       -42.0946177943      -57.1757646540       25.8500939174
atom         3.8924100000        8.4586000000        4.3661900000 H         0.0000000000         0.0000000000      -115.2911689011       70.6021105727       54.6585424711
atom         4.4007500000        0.2299000000       12.6739000000 H         0.0000000000         0.0000000000        88.4228895526      -13.0013889660      -20.0944634308
atom         3.5835400000        8.7535100000        1.8208300000 H         0.0000000000         0.0000000000        67.9254936064      -21.9823327107      -96.7143628677
atom         6.5058200000        1.4789300000        7.3867000000 H         0.0000000000         0.0000000000        80.4030977086       49.1497640144       92.6857957841
atom        10.0980000000        2.2412700000       11.6484000000 H         0.0000000000         0.0000000000       -49.6664660629      -58.6399197167       86.0107837728
atom         5.0084600000        5.2157000000        2.4060400000 H         0.0000000000         0.0000000000        76.8562427867       -8.1197225204     -117.9480882836
atom         8.1286700000        6.9035700000        5.7305100000 H         0.0000000000         0.0000000000       -67.5729942833      -50.1722047619     -149.2686464077
atom         6.3098700000        6.5922700000        3.7330500000 H         0.0000000000         0.0000000000       -96.8058077465       52.9152339100      -47.3178222427
atom         1.2499300000        9.9727700000        1.7807700000 H         0.0000000000         0.0000000000        -2.7125320262       -5.6182297137       99.1581819861
atom         8.4381500000        6.3573900000        4.1977700000 H         0.0000000000         0.0000000000      -104.1793763629       32.9022337309       99.9655828295
atom         7.7735000000        6.5504000000        1.9743200000 C         0.0000000000         0.0000000000        14.0077614830     -139.4469305004       26.5726375736
atom         4.0079200000        6.8811300000        6.4319700000 C         0.0000000000         0.0000000000       -70.8789954595        4.3726536019      156.3699892152
atom         4.2755500000        3.7449400000        8.3041700000 C         0.0000000000         0.0000000000        15.5514907897       60.8297076040      -69.1370553974
atom         1.9960100000        8.5904900000       12.8689000000 C         0.0000000000         0.0000000000        22.8286668836      105.3083104619      -19.3727612991
atom         6.8270200000        4.1702500000        5.3405100000 C         0.0000000000         0.0000000000      -144.2206564424       80.7249422817        6.0722701131
atom         9.5105300000        4.8070700000        6.9855500000 C         0.0000000000         0.0000000000        65.0845747152      -73.5954219410       46.0122153921
atom        10.1305000000        8.4288300000        1.8531000000 C         0.0000000000         0.0000000000        15.2478613203     -155.7068182950     -103.7841935666
atom         3.2306800000        4.1345100000        4.7796300000 C         0.0000000000         0.0000000000       120.9495559341     -225.2162974244       11.7974365155
atom         7.4181200000        9.9015600000       12.8750000000 C         0.0000000000         0.0000000000        28.7886524843      -56.0265393708      -59.1964400697
atom         6.7709500000        9.7530300000        5.8352200000 C         0.0000000000         0.0000000000         6.2085476060       22.4735393129       43.8798883244
atom         1.0929200000        0.9729800000        4.8217600000 C         0.0000000000         0.0000000000        -2.5187131392      -33.7250411896      -19.5450395306
atom         2.0861600000        5.9585500000       12.0877000000 C         0.0000000000         0.0000000000      -191.0009467542        9.9749948698       75.4014573655
atom         2.7366500000        0.9191700000        8.0113000000 C         0.0000000000         0.0000000000      -161.7485465396      -80.4831117097      -29.8346970948
atom         9.8038000000        5.0753200000       13.1172000000 C         0.0000000000         0.0000000000      -123.4436328845       52.4319196686     -160.8618937188
atom         5.2675600000        4.9762100000       10.5433000000 C         0.0000000000         0.0000000000        11.6632013295       18.6458940777      -69.8366637571
atom         5.0250200000        9.7937000000        9.1977500000 C         0.0000000000         0.0000000000      -121.3718455706       67.9143062807      -38.3574171432
atom         6.3462600000        1.7380200000        4.0640200000 C         0.0000000000         0.0000000000       138.8252193722      141.5795023335     -264.2443679063
atom         0.8918000000        1.9348300000       12.9528000000 C         0.0000000000         0.0000000000       -10.5203197023       -9.4652336128      -81.6812935255
atom        10.7682000000        8.4886400000        6.3725900000 C         0.0000000000         0.0000000000        79.6502183176        1.5600895169      -55.0712357821
atom         3.6530100000        0.3659100000        2.0462700000 C         0.0000000000         0.0000000000       108.3198297146      150.0518926562       47.2336802034
atom         8.9821800000        3.7005900000       10.0652000000 C         0.0000000000         0.0000000000       126.0489255426     -118.6169204478      -40.3166615413
atom         6.6030600000        3.0330200000        0.2774000000 C         0.0000000000         0.0000000000       -84.1277816455      -14.0808923537       14.7564339583
atom         0.8779000000        8.7339400000        3.1980400000 C         0.0000000000         0.0000000000        59.9466474358      -21.0907166169      133.2160898266
atom         2.1787500000        6.1539300000        2.1084900000 C         0.0000000000         0.0000000000       -33.6975925907      -34.5638432618     -122.4711816943
atom         9.8176400000        4.3055700000        8.0139100000 O         0.0000000000         0.0000000000       -64.5207795174       98.0317974599     -170.8486017820
atom         6.0197900000        9.3344500000        5.0170300000 O         0.0000000000         0.0000000000       151.5982752922       74.3185558998      164.7643697124
atom         3.0881200000        5.9411600000       12.6141000000 O         0.0000000000         0.0000000000       -90.6861496329       -3.9662162929      -75.0256166569
atom         7.9231300000        5.4430700000        2.2286400000 O         0.0000000000         0.0000000000        -7.2208005960      112.2214102958      -24.8398558755
atom         7.8117200000        0.3965300000        0.0817900000 O         0.0000000000         0.0000000000       -74.1706973145     -193.7802250650      -62.1280993871
atom         7.0342200000        1.4994300000       10.8754000000 O         0.0000000000         0.0000000000        33.7256823410        1.2305895047      106.3644035866
atom         4.0403700000        4.7415400000        7.5682000000 O         0.0000000000         0.0000000000        46.3374885475     -247.9568396564      182.0998874096
atom         2.4639600000        9.3470300000       12.0869000000 O         0.0000000000         0.0000000000       -85.6613455997     -154.7589586112      135.1878246878
atom         3.0608400000        6.7710800000        2.5465900000 O         0.0000000000         0.0000000000      -150.6468526982     -109.0196378081      -59.2833761561
atom         7.4909700000       10.1958000000        6.7640300000 O         0.0000000000         0.0000000000      -156.6096772587     -110.2907822901     -213.2793804492
atom         9.8999700000        9.5642800000        1.7525100000 O         0.0000000000         0.0000000000        22.3559049580     -143.2252051084       30.6665353471
atom         5.6538000000        6.9214300000        3.0892000000 O         0.0000000000         0.0000000000        -4.3345438578       -6.3775823067       66.8621565837
atom         9.8520200000        7.8375800000        6.6583100000 O         0.0000000000         0.0000000000       123.3141351892       94.5335697961      -27.0424572137
atom        10.5513000000        4.3528600000        0.6724100000 O         0.0000000000         0.0000000000      -115.1432023583      134.9175247093     -118.8515559744
atom         2.9852900000        3.5181800000        0.2421400000 O         0.0000000000         0.0000000000        16.6885311210      -51.3789221008     -124.6783505953
atom         1.4256800000        8.0416300000        0.5683900000 O         0.0000000000         0.0000000000        72.3120336811       58.6225813694     -115.5966660530
atom         0.9263600000        0.8336200000        0.1843200000 O         0.0000000000         0.0000000000        -7.2051314553      184.6683456666      -55.0627111506
atom         6.8890100000        3.9833100000        6.5187400000 O         0.0000000000         0.0000000000        17.9618889103       17.4495856046     -185.5323038643
atom         6.6868800000        6.1662200000       12.5615000000 O         0.0000000000         0.0000000000        28.3745184508      -68.2595904808       97.1962519998
atom         3.4940700000        0.4089100000        0.8400500000 O         0.0000000000         0.0000000000        -4.4456985701      -33.0041334654       71.2595932656
atom         2.4199100000        4.9087800000        4.5288400000 O         0.0000000000         0.0000000000        97.8951807714      -79.8702435599       28.4591573752
atom         3.8768300000       10.0060000000        2.8424900000 O         0.0000000000         0.0000000000       -41.0538039862       81.2309547852     -102.3000111635
atom         7.5563900000        7.5935800000        1.7881100000 O         0.0000000000         0.0000000000        17.8853133038       22.3471994648      -10.9371847555
atom         5.8330200000       10.4052000000        8.6222300000 O         0.0000000000         0.0000000000      -104.9979034274     -111.2482521615      102.4511979580
atom         0.8085600000        2.9438000000       12.2983000000 O         0.0000000000         0.0000000000         7.2610928693     -179.5626643954      125.1606850107
atom         4.5985100000        2.7647300000        8.9087200000 O         0.0000000000         0.0000000000       -66.0658373338      185.7066242447     -111.8194217319
atom         4.5740100000        6.2199500000        5.6432900000 O         0.0000000000         0.0000000000       -84.3950135723      108.3992909014      118.3985213467
atom         7.2224900000        8.8124400000       12.3408000000 O         0.0000000000         0.0000000000        50.5511193105      243.6262863319      123.3920852695
atom         7.5832000000        3.6079800000       13.1394300000 O         0.0000000000         0.0000000000      -152.9862657422      -98.2130276021       45.4708853648
atom         5.3815700000        5.0351600000        1.4981100000 O         0.0000000000         0.0000000000      -202.9710849428       -7.6569915562       91.6313449514
atom        11.3747000000        0.9657100000        4.7133200000 O         0.0000000000         0.0000000000       131.9824755333       11.1437211085       20.4254676226
atom         3.0408700000        8.6744600000        4.8018400000 O         0.0000000000         0.0000000000        27.4459808244       58.8291551399        1.0623422996
atom         9.7239300000        1.7545400000       12.3972000000 O         0.0000000000         0.0000000000       -24.4706784008       25.0614327522     -141.4066545529
atom         0.3396700000        9.0121700000        5.9670200000 O         0.0000000000         0.0000000000      -203.9108147171      -90.3549907718       82.2919800956
atom         3.0566100000        1.4062200000       11.1170000000 O         0.0000000000         0.0000000000       -49.7853571880     -129.4864138520       10.1160228095
atom         3.9333300000        9.4634700000        9.5851100000 O         0.0000000000         0.0000000000       221.8697470272       40.3568169049      -64.0249910150
atom         6.3108500000        4.5943400000        4.3591500000 O         0.0000000000         0.0000000000       121.0328772279     -104.5839746964      176.8314584211
atom         6.1123300000        1.3294300000        5.0993900000 O         0.0000000000         0.0000000000        -1.9756107624       19.0721049079      -39.0770228573
atom         7.6580900000        6.5464800000        4.8242600000 O         0.0000000000         0.0000000000       170.8068293216       32.3271725269       49.2900920587
atom         7.8909700000        3.9137300000        9.8388300000 O         0.0000000000         0.0000000000       103.4024452494        0.2907749483       35.0101368966
atom         6.5065700000        9.6602000000        1.9019700000 O         0.0000000000         0.0000000000      -151.4856686229       41.0680669473      -46.3813670018
atom         5.5406000000        2.4988700000        0.5002500000 O         0.0000000000         0.0000000000       227.6117083822      101.8865071784      -47.6251262186
atom        10.0853000000        3.1530800000       10.0465000000 O         0.0000000000         0.0000000000      -225.2296545266      123.9954107287       27.0200240290
atom         1.3718800000        5.5361000000        1.3323900000 O         0.0000000000         0.0000000000       177.9501495105      135.5378617630      197.7063072385
atom         4.0107900000        8.3541400000        0.9624000000 O         0.0000000000         0.0000000000        51.0235050002       37.1577822676      149.4133654870
atom         2.2337000000        0.8642800000        4.9050000000 O         0.0000000000         0.0000000000      -139.9682912256       21.6181974568       -5.8689840023
atom         9.4127800000        5.1306500000        5.9042600000 O         0.0000000000         0.0000000000         9.0840195173      -25.6014005645      118.5955736048
atom         5.2711500000        0.0628400000       12.2691000000 O         0.0000000000         0.0000000000       -72.6609301429       46.1160938344        0.8415509916
atom        10.3243000000        1.6087200000        7.3313800000 N         0.0000000000         0.0000000000       122.0003377245     -206.1467613339       54.6319101583
atom         3.4412200000        7.2775900000        7.4365200000 N         0.0000000000         0.0000000000       145.8323582589       -5.7846369517     -288.9146117206
atom         1.8175500000        4.3148000000        9.6605600000 N         0.0000000000         0.0000000000      -108.1929521860      -84.7023505267      -43.8217459203
atom         0.8459600000        5.9404800000       12.0497000000 N         0.0000000000         0.0000000000       238.8162096492      -43.1875905264       -5.8074146668
atom         3.3100100000        0.3289200000        7.0809100000 N         0.0000000000         0.0000000000       -38.1101300017      183.3079039062      165.8218518375
atom         9.0612900000        5.6541000000       12.3039000000 N         0.0000000000         0.0000000000       241.6674253366     -181.2492031544      268.7885954025
atom        10.2651000000        7.2627400000        1.6881800000 N         0.0000000000         0.0000000000        51.6040337909      254.5744359759      -33.6845910633
atom         3.9762100000        3.1329400000        4.8729300000 N         0.0000000000         0.0000000000      -182.9841319914      260.0258112705       69.3448386047
atom         0.8026200000        2.5147500000        2.2200300000 N         0.0000000000         0.0000000000       110.5161104086      132.3773823640      162.9236941279
atom        10.7508000000        8.1703500000       11.9614000000 N         0.0000000000         0.0000000000      -136.2194326312       99.2503426423      -17.7897906903
atom        10.2216000000        7.5387100000        9.2358600000 N         0.0000000000         0.0000000000        24.3137321482     -206.4929740466       65.6203105230
atom         2.2479900000        6.8261500000        9.5847000000 N         0.0000000000         0.0000000000         6.3557491544      -33.4540724845       -2.7385571869
atom         7.2160900000        8.0796800000        9.8567200000 N         0.0000000000         0.0000000000       130.1000409220     -181.3506703470       86.7274430844
atom         0.3919700000        8.9784800000        8.4020500000 N         0.0000000000         0.0000000000       159.6236535424      -20.1227048781      -29.5125409753
atom         1.2960500000        3.4056500000        6.7292100000 N         0.0000000000         0.0000000000       -80.9607779416      -20.0944819477     -180.1297570775
atom         0.6358900000       10.2199000000       10.7386000000 N         0.0000000000         0.0000000000      -113.9581504347      177.2183050163      -45.8445106780
atom         0.6244100000        5.7524000000        7.5186100000 N         0.0000000000         0.0000000000        68.5734753194      146.8476084980     -230.5002150587
atom         9.8947700000        8.8526600000       11.8642000000 N         0.0000000000         0.0000000000       138.4375134162     -108.0270110276       21.1634066997
atom         6.8134800000        6.8791900000        7.4673800000 N         0.0000000000         0.0000000000      -141.7067042873      174.1306857094      -26.6746402442
atom         3.9051800000        1.6339300000        2.5632100000 N         0.0000000000         0.0000000000       -76.9171920764     -249.1252381686      -26.5688595508
atom         1.8437900000        1.1756400000        8.7077300000 N         0.0000000000         0.0000000000       250.7866191309      -46.9063768494     -145.6437113527
atom         9.2837600000        0.4007800000        9.5932000000 N         0.0000000000         0.0000000000       -41.6830481935     -107.8729565914      -35.5185554158
atom         0.6384000000        7.6848400000        3.9200700000 N         0.0000000000         0.0000000000        89.0600734565      274.3738987179     -202.6992202719
atom         8.6973700000        1.4064400000        5.3370700000 N         0.0000000000         0.0000000000        25.6002863403      203.9164772249      -71.0323810904
atom        10.8843000000        0.6615300000        7.5623800000 N         0.0000000000         0.0000000000      -119.3492785669      214.7464813402      -56.7805196328
atom         9.1275200000        2.2338700000        2.0634700000 N         0.0000000000         0.0000000000       -16.9861778891      -64.2012227494       28.8504017972
atom         5.5144600000        5.7792100000        9.7775000000 N         0.0000000000         0.0000000000       -80.3405247134     -224.9486254935      224.9039565994
atom         4.9713600000        3.9371900000       11.3371000000 N         0.0000000000         0.0000000000        76.3059129576      162.8795042477     -156.5930415959
atom         9.4150500000        8.7938100000        4.2616800000 N         0.0000000000         0.0000000000      -156.4306176769      105.9561374061       -4.8488375405
atom        10.4040000000        4.3550100000        3.5317000000 N         0.0000000000         0.0000000000        50.3023074343      231.2385375109      -24.9710898612
atom        10.3897000000        6.4903000000        9.5616800000 N         0.0000000000         0.0000000000       -22.1393758189      191.0152014896      -56.9520428997
atom         0.8076400000        3.3198800000        5.7395400000 N         0.0000000000         0.0000000000        84.2620036697       10.5678713555      177.5865291441
atom         1.3292800000        3.1174500000        3.0032000000 N         0.0000000000         0.0000000000      -107.7690603497     -138.0285713475     -172.3094103844
atom         8.5189500000        9.4367700000        4.2381400000 N         0.0000000000         0.0000000000       150.3567574634     -107.4727564981        7.0994360885
atom         1.2124400000        9.8717900000        2.8198500000 N         0.0000000000         0.0000000000      -103.0210965954     -306.1548641565        9.0053315409
atom         2.2523700000        7.8206700000        9.9267800000 N         0.0000000000         0.0000000000         1.7665386813       20.0473182834       29.7571452834
atom         7.8556000000        7.2305500000       10.2066000000 N         0.0000000000         0.0000000000      -145.2741007628      181.6989126336      -70.5929028729
atom         1.4647800000        8.8102900000        8.2624400000 N         0.0000000000         0.0000000000      -155.0269213156       41.8372703263        8.0673613372
atom        10.6606000000        5.4429800000        3.4489700000 N         0.0000000000         0.0000000000       -58.0502469830     -236.7882889911       21.4943534442
atom         0.0523300000        0.5551700000       10.5058000000 N         0.0000000000         0.0000000000       117.7996738316     -163.9174301358       52.9351883785
atom         0.9166400000        6.3274100000        6.5853000000 N         0.0000000000         0.0000000000       -70.0314067832     -135.5015444974      221.6506876583
atom         9.0772700000        9.9773300000        9.2342600000 N         0.0000000000         0.0000000000        17.6980836864      116.7218867959       39.2914778094
atom         6.0998700000        7.7350200000        7.3944400000 N         0.0000000000         0.0000000000       147.6646919062     -173.8948846372       10.5180109325
atom         6.7547300000        2.2588300000        3.0556600000 N         0.0000000000         0.0000000000       -79.9785044735     -174.4004272855      281.2331308780
atom         7.1188600000        1.9165500000        8.2230900000 N         0.0000000000         0.0000000000       -96.4329426279       -4.6345859911      -50.7523501090
atom         0.9596100000        3.7887400000        9.2374700000 N         0.0000000000         0.0000000000       116.1904896837       69.8258568940       58.7964159725
atom         4.8953800000        7.7904200000       11.5958000000 N         0.0000000000         0.0000000000        17.8473585371      -48.7958884963       71.3436317797
atom         8.8233300000        2.4542600000        4.9868300000 N         0.0000000000         0.0000000000       -31.7273890627     -197.3698823798       61.3104326896
energy    -32831.3085727684
charge 0
end
begin
comment generated by PY
lattice        11.4200000000         0.0000000000         0.0000000000
lattice         0.0000000000        10.5800000000         0.0000000000
lattice         0.0000000000         0.0000000000        13.1400000000
atom         6.2021500000        9.4141200000        2.8221400000 H         0.0000000000         0.0000000000       -75.7311038417       53.7093993815      -31.8476596743
atom         0.6389600000        5.0257000000       12.7278000000 H         0.0000000000         0.0000000000        63.5025913305       86.3913878210        2.1306208643
atom         6.0180800000        0.8038600000       12.6799000000 H         0.0000000000         0.0000000000        80.6279398883       42.6020800807     -104.1429241009
atom         3.4407200000        2.9806600000        0.1880400000 H         0.0000000000         0.0000000000       -84.9033856316       90.5215295794       74.5873954677