begin
comment generated by PY
lattice        11.4200000000         0.0000000000         0.0000000000
lattice         0.0000000000        10.5800000000         0.0000000000
lattice         0.0000000000         0.0000000000        13.1400000000
atom         7.3542700000        3.3229100000        4.2040200000 H         0.0000000000         0.0000000000        19.8420285701      -52.1213695725      -98.9602128430
atom        11.0674100000        8.4438700000        4.3780200000 H         0.0000000000         0.0000000000       -37.4600879792      -87.1379029650      -45.7134426671
atom        10.6476000000        7.8167200000        6.2520800000 H         0.0000000000         0.0000000000       -98.6343506307      -23.8990023401       44.4650997512
atom         1.8389200000        0.9670400000       10.6363000000 H         0.0000000000         0.0000000000       -77.6855756229      120.0290333698      -85.2790456617
atom        11.2488000000        1.9208200000       11.1536000000 H         0.0000000000         0.0000000000        34.6429216676      -34.1692012109      -12.6490088372
atom         9.9332200000        3.2746500000        0.0416000000 H         0.0000000000         0.0000000000        40.9038832747      -15.1327637269     -116.4754119211
atom         1.6028400000        2.2849700000        2.7588600000 H         0.0000000000         0.0000000000        63.7494406019       20.6280096454      -49.4532403465
atom        11.4157000000        6.1286200000        6.4175600000 H         0.0000000000         0.0000000000       106.1269348454      125.3442443341       22.7746011209
atom         2.4078700000        6.9307200000       11.9411000000 H         0.0000000000         0.0000000000        26.2339425749      -69.1410649144       22.0052968842
atom         6.8766700000        6.7784800000        7.1030000000 H         0.0000000000         0.0000000000       -53.4279855730      -22.0325424875      -65.6458959827
atom         2.5825300000        3.3626400000        2.0957200000 H         0.0000000000         0.0000000000       -58.8769046554     -113.7671289935       19.9569782550
atom         3.4961600000        0.7953500000        1.3194400000 H         0.0000000000         0.0000000000        -4.6338531499       -5.3995854435       32.3843943650
atom         9.8315400000        8.4396000000        8.4829100000 H         0.0000000000         0.0000000000       -67.7288061567      -55.9931664559      -70.5058597752
atom         9.4228600000        1.7945900000       11.0596000000 H         0.0000000000         0.0000000000       113.3285165797       41.6412242470       31.6977248744
atom         6.4033700000        3.8232900000       10.7000000000 H         0.0000000000         0.0000000000       -33.3800645858       66.3032566634       99.2667977737
atom         8.5358000000        8.4820400000        5.2558900000 H         0.0000000000         0.0000000000      -115.3392872294       40.0192922027      -19.4167737566
atom         0.5176200000        1.5073800000        7.6151700000 H         0.0000000000         0.0000000000        98.2420325856      -17.4741228880     -104.0278164605
atom         5.2505600000        6.1476700000        3.2313400000 H         0.0000000000         0.0000000000       -40.7481673805       80.6706961291       14.4417498175
atom         8.2758000000        1.0670200000        3.6216900000 H         0.0000000000         0.0000000000         4.6059624566        7.4010058252       12.7981906800
atom         7.7151000000        7.9443000000       10.7953000000 H         0.0000000000         0.0000000000        94.3765583295      -79.2345584806      -17.0478844696
atom        10.4406000000        7.2206700000        3.4060500000 H         0.0000000000         0.0000000000        56.2283273140       77.6547247138      101.7980665397
atom        10.4538000000        6.1094100000        9.5397400000 H         0.0000000000         0.0000000000       -33.1725675155     -121.4698921689       48.9094017296
atom         0.8423700000        7.4256100000        7.1028800000 H         0.0000000000         0.0000000000       -27.0909704854      -63.6927516384      -50.4223114233
atom         5.0192800000        1.1286100000        1.1604600000 H         0.0000000000         0.0000000000       -72.7220004139      -79.9788577491      -20.4956343768
atom         0.8446900000        0.8263900000        3.8710400000 H         0.0000000000         0.0000000000        85.0348053787      -34.4658286306      -38.7205614715
atom         0.9162300000        1.8334200000        6.1642800000 H         0.0000000000         0.0000000000        28.3155374305      -66.3684986018      103.5195426731
atom         3.8205900000        9.3974500000       11.0829000000 H         0.0000000000         0.0000000000        11.0184841996        9.8786666214       28.3052386220
atom         1.3686100000       10.4496000000        8.8209100000 H         0.0000000000         0.0000000000       -99.0151923151      -70.6185704806       36.3395830993
atom         4.0316500000       10.4712000000        0.1384000000 H         0.0000000000         0.0000000000        44.8389749661       32.6252260695       75.1073601664
atom         9.7979900000        4.1346900000       11.6512000000 H         0.0000000000         0.0000000000        55.7917601505     -108.1147763444       57.1270828988
atom         9.3755400000        4.0878100000        3.2252900000 H         0.0000000000         0.0000000000       -99.0032470074      -65.0397002619      -33.6262017588
atom         0.2493000000       10.4455600000        9.6488200000 H         0.0000000000         0.0000000000        26.9024304198      -24.9312742476      -21.5132438155
atom         5.0772600000        9.4716000000       11.7585000000 H         0.0000000000         0.0000000000      -123.7136997128       18.6525046893       23.5581917699
atom         2.5719000000        8.5160100000        6.6533900000 H         0.0000000000         0.0000000000       -43.9483732545       90.9998936416       24.0442541711
atom         1.9020800000        2.4970700000       10.1906000000 H         0.0000000000         0.0000000000       -60.7863433314      -85.1165878546       -1.2740363976
atom         9.4970600000        9.7656500000       11.9189000000 H         0.0000000000         0.0000000000       -66.9547774050       21.4049060766       76.1334382205
atom         2.8004100000        6.3142300000        5.3406100000 H         0.0000000000         0.0000000000       -17.6071075101       -1.4669293817      -52.1339726395
atom         1.2752800000        6.3891700000        4.5930400000 H         0.0000000000         0.0000000000        84.9258904527      -21.5498067514       -9.1861573390
atom         3.0566900000        5.8555400000       13.1251000000 H         0.0000000000         0.0000000000       -13.8855874731        8.0735242865      -43.1078082981
atom         8.3118000000        6.6310800000       10.0432000000 H         0.0000000000         0.0000000000        23.3330989983      125.3847550883      110.7981712365
atom         1.6562100000       10.4206000000        4.3006500000 H         0.0000000000         0.0000000000         0.8784180632       71.9277595104      -82.7724073185
atom         3.4996600000        6.3056200000        6.9622800000 H         0.0000000000         0.0000000000        19.8312879180       71.2581020526      -44.9408041562
atom        10.2590000000        4.5547500000        9.3494100000 H         0.0000000000         0.0000000000         3.8400753063       67.0680300831       36.7654793844
atom         9.5415400000        3.5945000000        1.0777600000 H         0.0000000000         0.0000000000       -60.8860168516      -74.1255815295       30.8663558752
atom         4.8095800000       10.3704000000        1.8151000000 H         0.0000000000         0.0000000000       -39.2991828370       20.2868873875      -15.5945921131
atom         8.2514900000        9.7388700000        0.0919000000 H         0.0000000000         0.0000000000        42.0611924871        8.7090975464      -37.5734464577
atom         4.1570900000        9.8234600000        7.2451500000 H         0.0000000000         0.0000000000      -100.8025994666       21.7898629919      -37.4297880168
atom         4.3053700000        7.5654100000        6.1320800000 H         0.0000000000         0.0000000000       -80.4113179404      -72.6243020419       47.9729192560
atom         3.2506200000        1.1094800000        9.0847700000 C         0.0000000000         0.0000000000        -8.2504724223       18.0064526790      -75.3669568706
atom         7.0869800000        4.5276900000       12.2989000000 C         0.0000000000         0.0000000000      -110.2398549996       27.5524109056      -85.7517590378
atom         3.0963000000        2.4169500000       12.8540000000 C         0.0000000000         0.0000000000        66.0009316166      -26.0680054885       17.0080721813
atom         9.1260200000        7.9597900000        7.7923500000 C         0.0000000000         0.0000000000        34.1700522333        6.5428999553      -54.1026017379
atom         8.9171800000        0.0129000000        9.4199200000 C         0.0000000000         0.0000000000       -27.3440866166      -23.6690065771      -82.2262755091
atom         8.0127200000        2.0759800000        0.9018500000 C         0.0000000000         0.0000000000       -13.5902123627       57.2142088660      -60.7263859863
atom         6.0968000000        5.3460900000        5.7931700000 C         0.0000000000         0.0000000000         5.0505804839       90.4861390031      122.5578264551
atom         5.4707000000        7.9758200000        2.9069900000 C         0.0000000000         0.0000000000      -137.7439356715     -149.2555557660       57.0568450371
atom         9.2501200000        6.5372900000        0.9880100000 C         0.0000000000         0.0000000000       -37.1143783290      110.6425595267      -18.9125733086
atom         1.1961400000        4.3660500000        7.8268700000 C         0.0000000000         0.0000000000        -0.0603230557      -25.4490147763      -92.1392615769
atom         9.7231200000        4.8291300000        6.0628100000 C         0.0000000000         0.0000000000        -7.0219229533       12.8211033219       97.6341278531
atom        10.0681000000        1.3448500000        4.4306500000 C         0.0000000000         0.0000000000        25.3553151996       47.4884423770       30.8803746966
atom         2.6664000000        5.6820700000        3.2799800000 C         0.0000000000         0.0000000000        41.6849614827     -125.7228015883      -28.6782856453
atom         8.6294500000        3.4449100000        2.8295400000 C         0.0000000000         0.0000000000       -21.9284885180     -130.0642772891     -214.0452856619
atom         9.9544200000       10.5300200000        0.3893200000 C         0.0000000000         0.0000000000        12.7643483990      267.0281190450       16.3830824471
atom         7.8938600000        4.2052200000        7.8041100000 C         0.0000000000         0.0000000000         5.8907552755       19.4191486536       14.6547609199
atom         6.3685100000        8.7468800000        5.4027200000 C         0.0000000000         0.0000000000       278.9041555930       22.6900462154      -15.9106196395
atom        11.2778000000        4.1996300000        2.9192500000 C         0.0000000000         0.0000000000        26.7367514290      -47.8187618871     -106.2496707026
atom         2.9462500000        8.8577300000        2.9283000000 C         0.0000000000         0.0000000000        76.4577254284      -47.4750387551        7.6464736724
atom         9.3412200000       10.0375000000        3.1802100000 C         0.0000000000         0.0000000000        11.1406955702       97.5179573332      108.3467167817
atom         0.1948600000        4.0834800000       12.1943000000 C         0.0000000000         0.0000000000        -2.7088811207      -64.8585861569       21.1753540966
atom         3.2689100000       10.2252000000        6.7802700000 C         0.0000000000         0.0000000000        41.1105237632       37.3137574167      -47.0203045562
atom         2.8519500000        5.1164000000       11.1891000000 C         0.0000000000         0.0000000000        49.3016584703      -44.3482233944     -140.3913939604
atom         4.6638900000        3.7702200000        7.8357500000 C         0.0000000000         0.0000000000       -44.4522997274       65.5695808344       25.7962813767
atom         5.9265000000        8.8530900000        2.3174700000 O         0.0000000000         0.0000000000       -56.6772067142     -113.0142108592       87.2344040562
atom         1.3587800000        4.1165600000        6.7016100000 O         0.0000000000         0.0000000000       -23.3932306028       38.9416269732      165.6009239164
atom        10.5720000000        9.9036000000        3.2709200000 O         0.0000000000         0.0000000000      -136.2428216687       -6.5012549207      -20.2075976993
atom         3.4418800000        2.2079600000        8.6071400000 O         0.0000000000         0.0000000000       -25.8905546162     -244.3463671646      109.3282165351
atom         8.6888100000        7.4835700000        0.4702800000 O         0.0000000000         0.0000000000       120.7117290016     -217.7103721313      109.4396364366
atom         0.6424500000        9.8749500000        9.0871100000 O         0.0000000000         0.0000000000        57.2857261422       87.2495813750       -6.7500437376
atom         3.6195500000        3.4355800000       13.0776000000 O         0.0000000000         0.0000000000       -90.0643776385     -158.6477548899      -36.3373163297
atom         9.6811800000        7.6315500000        6.5185800000 O         0.0000000000         0.0000000000        12.6490483188       46.5563555592       93.6642278426
atom         5.5692200000        3.5937300000        8.4904200000 O         0.0000000000         0.0000000000       -68.2351173633        1.3520615698      -71.7799951102
atom         0.9715400000        4.5957800000        8.9031900000 O         0.0000000000         0.0000000000        23.6089149347      -16.4145273738      -85.4100995143
atom         8.5319900000        7.3837200000       10.7396000000 O         0.0000000000         0.0000000000      -119.1675837410      -44.2601370666      -91.1429094858
atom         7.9845700000        7.7660700000        7.9732100000 O         0.0000000000         0.0000000000       107.6263725647        5.3214303387      -27.2318569547
atom         3.3309100000        8.6862400000        1.8064200000 O         0.0000000000         0.0000000000       -91.2213941038       43.9411565238      208.9743289868
atom         6.5432800000        9.1084400000       12.5693000000 O         0.0000000000         0.0000000000        93.0012248623       60.3162775429     -175.2631521399
atom         2.1924000000        2.4082400000        2.0617800000 O         0.0000000000         0.0000000000        22.6562220855      107.8462827941       32.6384874123
atom         5.9310200000        4.1991900000        5.3878600000 O         0.0000000000         0.0000000000        32.2264457490      221.2992799688       52.5092176110
atom        11.1247000000        4.6929300000        3.9332400000 O         0.0000000000         0.0000000000        20.8111530171      -51.0498870595     -109.4946666171
atom         8.3619200000       10.3414000000        8.4164400000 O         0.0000000000         0.0000000000        88.4386287202       39.8246967117      182.3595080160
atom         4.1113000000        9.6142100000       11.8951000000 O         0.0000000000         0.0000000000       106.3988328531      -28.4903408505      -40.6433900592
atom         8.3651300000        9.5186500000        2.7508900000 O         0.0000000000         0.0000000000       108.9579926120       34.9118216160       20.1804062555
atom         7.3160300000        1.2580900000        1.4646900000 O         0.0000000000         0.0000000000        95.0997323278      101.7754946204      -42.5798653448
atom        10.8441000000        7.5239300000        4.2398300000 O         0.0000000000         0.0000000000       -22.1074437527       11.1184897594      -56.7659823318
atom         3.1098600000       10.5065800000        9.3099700000 O         0.0000000000         0.0000000000        43.2206198459      218.1712462801      -37.4075303068
atom         7.7921500000        3.5334400000        6.8812300000 O         0.0000000000         0.0000000000        16.9414196209       72.4380334639      125.9871047635
atom         0.0024000000        3.6937200000        1.8419900000 O         0.0000000000         0.0000000000       -33.3260741557      100.8007977638      212.5161643484
atom         2.9129600000        1.2534400000       12.6858000000 O         0.0000000000         0.0000000000         6.8978108610      209.6268888831        4.6078026337
atom         7.5475000000        2.8814500000        3.3410800000 O         0.0000000000         0.0000000000       107.4184477989      139.3697604131       64.5309174266
atom         9.8210900000        5.7367700000        1.6116000000 O         0.0000000000         0.0000000000       -83.1001233954      110.1336218815      -89.8100510004
atom         2.1424600000        9.4312200000        6.7587200000 O         0.0000000000         0.0000000000       167.1985406377      -16.7048441407      -21.6948502773
atom        10.1558000000        5.2538400000        9.9317600000 O         0.0000000000         0.0000000000        32.9504915130       57.4030453313      -62.6977700011
atom         8.9994800000        4.7816500000        5.1751200000 O         0.0000000000         0.0000000000       109.5558139534       11.3649351554      117.8569835204
atom         0.6986000000        6.8742800000        6.3744000000 O         0.0000000000         0.0000000000       -74.5731311449      -42.6100626934       45.0575342990
atom         7.1200400000        9.4771000000       11.4696000000 O         0.0000000000         0.0000000000       -95.5969273508      -58.4498966161      162.0831242697
atom         2.8305600000        8.8562800000        4.1018500000 O         0.0000000000         0.0000000000         8.5204524460       -0.5768894817     -209.5333144492
atom         8.0931100000        4.7002800000       12.9747000000 O         0.0000000000         0.0000000000      -210.7632904219      -13.1394700652     -127.5479098917
atom         8.0563300000        4.8995600000        8.7164900000 O         0.0000000000         0.0000000000       -36.2801318902     -101.4890276430     -129.5429282729
atom         9.5153900000        0.2512800000       10.3660000000 O         0.0000000000         0.0000000000       -72.4384735355      -36.7560305326     -119.5433986131
atom         5.3315500000        8.6810200000        5.9603400000 O         0.0000000000         0.0000000000       115.8988417943       17.9447123113      -90.4497338362
atom         1.4028100000        1.6846600000       10.0052000000 O         0.0000000000         0.0000000000       127.6080350189      -29.1694783413       99.4424266858
atom         1.1991900000        3.3626200000       11.9672000000 O         0.0000000000         0.0000000000      -139.7070743126       97.0597393425       32.2103126401
atom         1.6636600000        0.4490000000        3.5663100000 O         0.0000000000         0.0000000000       -93.7681896354      -30.8794884287      129.7077035396
atom         3.4435300000        0.7155700000        6.2317400000 O         0.0000000000         0.0000000000       -44.3199145984     -164.0253971603       79.0213635362
atom         0.0307300000        5.2261000000       12.5635000000 O         0.0000000000         0.0000000000        13.8080785123     -144.1698344036      -47.9871369157
atom         3.7129100000        4.1600700000        7.3355200000 O         0.0000000000         0.0000000000       121.0661257029      -47.8089790359       40.0866452652
atom         3.4686100000        7.0800700000        6.4631300000 O         0.0000000000         0.0000000000        59.8192300901       14.7658425273       -9.8828867246
atom        10.3042000000        4.9000000000        7.1335800000 O         0.0000000000         0.0000000000      -109.4483091450      -16.1049300455     -230.8013891477
atom         7.9852200000        2.3002400000       12.7526000000 O         0.0000000000         0.0000000000        24.4464167530      -31.8366126427      191.9159393202
atom         1.2732400000        1.3562300000        6.9651700000 O         0.0000000000         0.0000000000      -154.6779277244       82.1864117043        2.7055400742
atom         6.3581300000        1.4175000000        6.5642800000 N         0.0000000000         0.0000000000       181.3460881942     -179.3779843727      -49.4500465598
atom         6.0128100000        4.5113400000       11.5895000000 N         0.0000000000         0.0000000000       366.0716287194      -81.3548846033      122.2469669095
atom         5.4787200000        1.2356600000       11.4296000000 N         0.0000000000         0.0000000000         4.2836709797       89.5185166909      102.1575026354
atom        10.9282000000        1.9946600000        4.8469500000 N         0.0000000000         0.0000000000      -247.1820814734     -197.8192744592     -124.3464677944
atom         2.2374900000        6.0074600000        4.5144200000 N         0.0000000000         0.0000000000        30.5773243089      -30.3852428040     -221.2944833300
atom         8.8065400000        3.0159400000        1.6051300000 N         0.0000000000         0.0000000000       -71.9588269427       33.4046203401      135.1490670285
atom         6.1855800000        6.3959300000        6.3646100000 N         0.0000000000         0.0000000000        29.8513914716     -280.8469590295     -112.4234586759
atom         4.7798600000        7.0691100000        3.4416900000 N         0.0000000000         0.0000000000       245.7969097003      172.9900844836     -158.0797475692
atom         4.5787300000        0.1829500000        3.7382900000 N         0.0000000000         0.0000000000       200.9148584069      137.0462052114        3.7487631527
atom         3.0858500000        3.3632000000        4.4550500000 N         0.0000000000         0.0000000000       195.4985453697     -112.4807203962      136.1708061478
atom         4.9761000000        3.8414800000        2.4924400000 N         0.0000000000         0.0000000000       141.3014327566      -24.1977460662     -140.6859147423
atom        11.1117000000        7.7705000000       10.3463000000 N         0.0000000000         0.0000000000         6.4276914190      -21.3615365209      133.3685083329
atom        10.3715000000        2.5477200000        8.1869500000 N         0.0000000000         0.0000000000       -68.1774637500      -88.0019466900      -35.6470377436
atom         5.4080400000        6.0420200000        9.7749600000 N         0.0000000000         0.0000000000       107.1810819408      226.9897401873      170.5883032149
atom         5.6881400000        8.7767500000        8.6288400000 N         0.0000000000         0.0000000000         0.2057551577      194.5205403388       65.4729562051
atom         2.3346700000        7.8538200000        9.9299900000 N         0.0000000000         0.0000000000        50.1080881056      -80.0253950823     -226.6546528241
atom        10.1907000000       10.1677000000        6.4042600000 N         0.0000000000         0.0000000000       105.7698669063      -57.2003972909      -81.8671185710
atom         3.9495100000        2.9096400000        5.0278000000 N         0.0000000000         0.0000000000      -208.1590731467      105.6588877864     -136.9800303467
atom         5.0593200000        5.8833200000        0.5905900000 N         0.0000000000         0.0000000000       115.5763000988      136.3158419606       -2.7065223149
atom         9.0002700000        0.6042500000        4.0366800000 N         0.0000000000         0.0000000000       246.6096157481       16.6543041358      -27.2927983408
atom         3.0736500000        5.1247500000        2.3138700000 N         0.0000000000         0.0000000000      -145.6529158097      179.9914258246      300.0764668572
atom         1.1181600000       10.2776000000       12.8947000000 N         0.0000000000         0.0000000000      -140.3701791691      -43.2296209441     -258.7719921886
atom         2.9983000000        4.4367400000       10.1949000000 N         0.0000000000         0.0000000000       -49.2215129717      232.8984098359      354.1235771468
atom         1.5261100000        7.4461300000        0.9872400000 N         0.0000000000         0.0000000000      -207.1572382683      128.4952287528       41.4480587570
atom         7.1568100000        0.6452200000        6.3548700000 N         0.0000000000         0.0000000000      -185.3887874131      182.5805114249       49.1272948148
atom         4.3023700000        0.3213900000        1.1420400000 N         0.0000000000         0.0000000000        93.0542506100       30.7324932720      -68.1641604128
atom        10.6507000000        0.7464000000        0.9055100000 N         0.0000000000         0.0000000000      -225.7970475054     -269.3303283901     -158.5439607295
atom         2.7947500000        6.0153000000       12.1751000000 N         0.0000000000         0.0000000000        -1.8870326932     -131.9059952949     -192.3609143933
atom         7.4063600000        2.7004900000        9.9368200000 N         0.0000000000         0.0000000000       -65.6755700374     -255.4592930075     -190.0814205150
atom         7.1574400000        5.6849100000        2.8024700000 N         0.0000000000         0.0000000000       176.5848116348      236.2392370182       91.5228142846
atom         5.7327300000        3.7519000000        1.6876100000 N         0.0000000000         0.0000000000      -138.0168435517       10.2084496352      140.2011049314
atom         5.7057100000        9.8165900000        9.0152100000 N         0.0000000000         0.0000000000        -4.7185503477     -193.1918125783      -69.5250228861
atom         5.5011400000        0.8189400000        3.7845200000 N         0.0000000000         0.0000000000      -197.5175424488     -134.3732493889      -10.9387765811
atom         7.1805300000        1.7915000000        9.2459500000 N         0.0000000000         0.0000000000        67.0040601749      266.0652307017      204.0411791647
atom        10.3778000000        2.1937300000       11.2615000000 N         0.0000000000         0.0000000000      -134.5807202431      144.6395896100      112.4880883764
atom        11.2427000000        7.7084700000       11.4261000000 N         0.0000000000         0.0000000000       -18.1165799395        9.0335723941     -141.6514162409
atom         9.6904700000        1.7764200000        7.8364100000 N         0.0000000000         0.0000000000        81.0617136192       94.2366309639       40.3240970786
atom         5.8049300000        6.8856200000       10.4412000000 N         0.0000000000         0.0000000000      -103.7267240800     -215.4091920130     -176.1969548113
atom         7.8192200000        6.5677900000        3.1212200000 N         0.0000000000         0.0000000000      -168.8615095586     -234.0090870596      -84.5098225254
atom         2.5293600000        7.4712600000        8.8918100000 N         0.0000000000         0.0000000000       -49.5521126636       84.4932610757      227.7446215710
atom        10.9760000000        9.7368300000        5.7849400000 N         0.0000000000         0.0000000000       -95.9565192856       43.0829226894       71.3731291875
atom         0.5492200000       10.1281000000       11.9119000000 N         0.0000000000         0.0000000000       151.0634985058       48.7969090410      241.7068149599
atom         5.8101100000        6.6905600000        0.6115600000 N         0.0000000000         0.0000000000      -121.6910288218     -130.1541853787        0.1439047134
atom         7.5229600000        8.9060300000        5.0402500000 N         0.0000000000         0.0000000000      -274.5134050403      -93.1224768398      127.1597034836
atom        10.3639000000        3.2888800000       12.1154000000 N         0.0000000000         0.0000000000        20.2631964467      105.4763911414      -44.6106525490
atom         5.5455200000        1.9584200000       12.2437000000 N         0.0000000000         0.0000000000        -7.6318006789     -101.0566431507      -92.9860763880
atom         8.9414000000       10.2320000000       12.6954000000 N         0.0000000000         0.0000000000       228.9553524216      -13.9054280966      126.7537366478
atom         0.5982500000        8.0453300000        1.1989500000 N         0.0000000000         0.0000000000       200.2280334203     -137.6830713909      -45.2135652018
energy    -32840.0399702356
charge 0
end
begin
comment generated by PY
lattice        11.4200000000         0.0000000000         0.0000000000
lattice         0.0000000000        10.5800000000         0.0000000000
lattice         0.0000000000         0.0000000000        13.1400000000
atom         6.8485100000        3.3517500000        4.1445900000 H         0.0000000000         0.0000000000        68.8102167352      -72.6951836415      -32.0903454324
atom         0.0152500000        7.5000000000        3.6674400000 H         0.0000000000         0.0000000000         7.5082719627      -39.0001431785      109.2168095244
atom        10.7795000000        7.4564800000        7.2419200000 H         0.0000000000         0.0000000000       -29.9578263185      -32.1966402148      -25.5068534598
atom         1.4133900000        1.6730000000       10.6143000000 H         0.0000000000         0.0000000000       -87.0615584139       97.9000224307     -101.2756411766