begin
comment generated by PY
lattice        11.4200000000         0.0000000000         0.0000000000
lattice         0.0000000000        10.5800000000         0.0000000000
lattice         0.0000000000         0.0000000000        13.1400000000
atom         7.0825800000        0.6946000000        3.0067200000 H         0.0000000000         0.0000000000       -70.5330568406       11.4331604249      -25.1037962862
atom         1.9157400000        6.3713700000        6.8392700000 H         0.0000000000         0.0000000000        26.9896475184      -13.1672009586       58.5690006648
atom         3.2856900000        8.6606000000        4.7116700000 H         0.0000000000         0.0000000000       -92.8569283162       24.1772481668       17.0313766839
atom         1.6252500000        0.9763800000        8.8665200000 H         0.0000000000         0.0000000000         9.5442308483       81.4301991000      -84.8473760727
atom        10.8310000000        1.8006200000       12.6902000000 H         0.0000000000         0.0000000000       -61.7919597284       22.9683308047      -55.9593868474
atom         9.7365300000        3.9763200000        0.2663800000 H         0.0000000000         0.0000000000        14.4783189379      -30.9281287423     -103.5218324023
atom         4.4755300000       10.0658000000       12.4123000000 H         0.0000000000         0.0000000000      -101.3367374181       36.6426319472       19.9112594640
atom         3.2355300000        9.5808800000        7.4683300000 H         0.0000000000         0.0000000000        50.2157783438       60.5390081207      -42.4684933605
atom        11.1903000000        7.9339900000       11.3047000000 H         0.0000000000         0.0000000000        79.7879243263      -22.5300881304       36.2421050072
atom         2.3496700000        2.8837000000        8.3931500000 H         0.0000000000         0.0000000000        29.6747832247       90.6515954221        0.4045165738
atom         3.2622500000        0.1487800000       11.7208000000 H         0.0000000000         0.0000000000        50.9580331398      -36.6047904296      110.5633146612
atom         5.6183800000        9.5559700000        2.0038100000 H         0.0000000000         0.0000000000       -21.6283267945      -64.5581290651       -7.9698551810
atom        10.5241000000        5.4268800000        4.7785300000 H         0.0000000000         0.0000000000       -32.9661468184       33.8836278984       89.7980049655
atom        11.1215000000       10.3117000000        0.7880400000 H         0.0000000000         0.0000000000       -46.9989489269      -70.9238377042       42.2751483608
atom         5.7899500000        1.1293600000        0.6137900000 H         0.0000000000         0.0000000000       103.9447988265      -30.1111365434       48.6121206429
atom         7.1583800000        6.6444200000        6.6966700000 H         0.0000000000         0.0000000000       -46.1996132857      -61.9152861964      -65.4687770815
atom         3.5290700000        1.5346300000        4.7634200000 H         0.0000000000         0.0000000000       -18.5511566796       15.8524754567       97.1029824731
atom         4.3279800000        7.6201400000       12.0650000000 H         0.0000000000         0.0000000000      -102.9400105613        2.6492469608      -23.3918349905
atom        11.2736000000        8.0998200000        6.7837200000 H         0.0000000000         0.0000000000        35.6163131745       31.3346608482      -63.1908807062
atom         8.0301100000        7.3037800000        0.6920400000 H         0.0000000000         0.0000000000         6.1570565274       86.6827656788       98.3776965186
atom         8.9662800000        6.9492900000        4.9657300000 H         0.0000000000         0.0000000000        26.9855663216      -54.4583910931       99.5048886350
atom         8.9981200000        5.6992400000       11.1808000000 H         0.0000000000         0.0000000000        16.1938923722       82.5797374826     -100.1892611506
atom         2.5640900000        4.8200000000        8.2702100000 H         0.0000000000         0.0000000000        12.1662578465     -127.9645547971       26.4412827790
atom         5.4234000000        8.2516300000        0.8244100000 H         0.0000000000         0.0000000000       -13.7343884932       21.1475689433       64.9629023720
atom         3.2857900000        2.7733300000       12.0130000000 H         0.0000000000         0.0000000000       -58.4053995320      -38.5999197551      -84.3974306799
atom         3.4799700000        1.0299400000        6.2232100000 H         0.0000000000         0.0000000000       -23.4329533581       86.5375667307      -70.7614832724
atom         3.3870100000        7.5947100000       10.8870000000 H         0.0000000000         0.0000000000         3.7912002975        1.1224584468      137.2000192141
atom         4.7369300000        1.6251700000        8.7520100000 H         0.0000000000         0.0000000000       -36.0079521975      -52.1028315496       75.0575806436
atom         4.8643300000        8.0618500000        2.4570100000 H         0.0000000000         0.0000000000        21.1806125325       33.8817459715      -40.5213659996
atom        10.6782000000        4.0511100000       11.8090000000 H         0.0000000000         0.0000000000       -55.4701551103      -40.4278647899       82.4632386931
atom         9.3022000000        2.4887100000        2.2096900000 H         0.0000000000         0.0000000000      -107.3453012183      -34.5091683089       -4.4803135684
atom         3.9460000000        1.4279600000       10.0955000000 H         0.0000000000         0.0000000000        61.9354704581      -37.8691015687      -91.9238687105
atom         6.8650300000        9.9250100000       13.0216000000 H         0.0000000000         0.0000000000        18.4623007987       30.3487425973       72.1654103634
atom         1.8984800000        2.6714600000       11.0546000000 H         0.0000000000         0.0000000000       129.0504416797      -31.6206443192       34.3624828894
atom         1.2111600000        1.1571900000        7.4049300000 H         0.0000000000         0.0000000000        43.3263525883       36.1654542384       55.5168538796
atom         7.6240600000        8.0837200000        3.1496000000 H         0.0000000000         0.0000000000       -46.1531479187      -12.1629671481       78.0373372946
atom         1.7986100000        9.3669800000        2.5638800000 H         0.0000000000         0.0000000000        51.5495660375      -14.2365086620      -56.7284473129
atom         2.8242100000        9.4231300000        1.0202200000 H         0.0000000000         0.0000000000       -27.9809719097      -26.9895668099       66.3555329581
atom         1.4139100000        8.1092700000       12.1516000000 H         0.0000000000         0.0000000000       -56.3487540175      -25.5047717992      -45.0570378834
atom         7.8899200000        8.8201400000        1.2083100000 H         0.0000000000         0.0000000000        26.9405649280     -109.4775295652       25.3861825549
atom        11.3948000000        7.2798800000        3.7872400000 H         0.0000000000         0.0000000000        92.9618352853       79.5230869195       12.5040027740
atom         3.4530600000        1.2929600000        2.4667700000 H         0.0000000000         0.0000000000        63.4805957469      -37.9996013901      113.1094901530
atom         9.8231700000        6.0154400000        9.9513000000 H         0.0000000000         0.0000000000      -100.3983513397       39.0045815181       75.9387202101
atom         7.3502100000        2.8665000000        0.6945800000 H         0.0000000000         0.0000000000         9.1691460416      -54.9275137641        5.0118399505
atom         7.2085100000        6.8350800000       11.8729000000 H         0.0000000000         0.0000000000        31.8754851803      -45.6462842911       85.2853318268
atom        10.2566000000        8.7059200000        1.1281800000 H         0.0000000000         0.0000000000        28.8915134973       71.8379171078        6.2151957706
atom         1.6248800000        7.3883600000        9.3761500000 H         0.0000000000         0.0000000000        39.5720467749      -11.9248436293      -84.9406938679
atom         4.8167000000        0.8379300000        2.9870000000 H         0.0000000000         0.0000000000      -101.5173476279       23.2044053255       36.4214045616
atom         5.5416100000        9.3368300000        9.8706400000 C         0.0000000000         0.0000000000        19.8681999171       -2.2470635063      -32.6409546483
atom         7.1820500000        5.1250200000       12.7162000000 C         0.0000000000         0.0000000000       -88.3924886425     -230.7509207359       61.0489836802
atom         0.0737400000        3.7626300000        9.6364500000 C         0.0000000000         0.0000000000        85.0775627671      -18.7448397261       21.1147365471
atom        10.2487000000        5.7329200000        5.7442700000 C         0.0000000000         0.0000000000        48.0793079012       -4.6218612784       54.5017929323
atom         9.0531200000        7.3805200000        8.0982300000 C         0.0000000000         0.0000000000       -18.9262883221        8.7847582037      -14.3309569387
atom         6.6771700000        0.8489800000        1.1763600000 C         0.0000000000         0.0000000000        24.9710858598       86.4178481460       11.3804139775
atom         7.2922200000        5.1719200000        5.4687800000 C         0.0000000000         0.0000000000        84.0604768291     -162.9557777000     -125.4106113639
atom         6.1841400000        8.5792600000        4.3306300000 C         0.0000000000         0.0000000000      -213.5074059927      100.0085376527       34.0692507898
atom         9.2038500000        5.6550800000        2.6253700000 C         0.0000000000         0.0000000000         1.8303352490       -6.9348840715       13.0797187302
atom         2.1868300000        3.9334200000        5.7623800000 C         0.0000000000         0.0000000000         3.8848518502       20.5986653237       22.7684975987
atom        10.0064000000        2.7119400000        5.3950800000 C         0.0000000000         0.0000000000       -10.5625290875       -4.9054493924      -19.7727946062
atom         0.4827300000        9.7894800000        6.1005000000 C         0.0000000000         0.0000000000        33.4509946166       88.8849162814       48.2076729735
atom         2.6247600000        7.6750000000        1.9312900000 C         0.0000000000         0.0000000000        13.2605944351     -117.3715440599        5.5178211430
atom         8.3197800000        2.0909400000        2.2771300000 C         0.0000000000         0.0000000000       -86.8301581108      -11.7058417023      -27.5075148602
atom        10.2622000000       10.0727000000        2.5513600000 C         0.0000000000         0.0000000000       -25.4734126986       34.7710082498      134.4147747307
atom         8.1253100000        4.0800700000        9.1343600000 C         0.0000000000         0.0000000000         0.4761239596        2.1339077047       49.2356732911
atom         5.0756900000        9.9111900000        7.1651900000 C         0.0000000000         0.0000000000       204.4184118003      -64.9016862083       32.3589549244
atom         1.6857400000        4.4589100000        3.0731300000 C         0.0000000000         0.0000000000        13.0844887623       -0.7173148966       10.2192904861
atom         1.8406700000        1.2404600000        0.4522100000 C         0.0000000000         0.0000000000        12.5172951560       11.2647795384       34.8668518804
atom         1.4609600000        7.8880500000        4.8877800000 C         0.0000000000         0.0000000000       -23.1054426505       15.4813977074       28.8888737420
atom         0.4843600000        3.4226300000        1.0381400000 C         0.0000000000         0.0000000000       -10.4783853939       -3.8180975427       -5.2937983272
atom         2.0146500000        7.3720600000        8.3938400000 C         0.0000000000         0.0000000000        30.3312427956       37.8005383888      -41.9627838723
atom         1.2115700000        6.4776800000       11.1786000000 C         0.0000000000         0.0000000000        62.9797991402     -103.7415217004      -32.7370130532
atom         4.3560500000        6.5803500000        5.4176800000 C         0.0000000000         0.0000000000        -7.5641616146       44.0187201072       -4.5342675821
atom         7.3011000000        7.9499000000        4.0796800000 O         0.0000000000         0.0000000000       -98.3901148302       89.3674925886      -55.3763148771
atom         1.0961100000        3.5556600000        5.9338000000 O         0.0000000000         0.0000000000       172.9317925408       54.0814284857      -33.6319677074
atom         2.3641700000        8.9087400000        4.8897300000 O         0.0000000000         0.0000000000        -1.3886363295      -99.4484272265      -31.1675721009
atom         6.6899500000        9.6124900000        9.8532100000 O         0.0000000000         0.0000000000      -202.4537218663      -49.0166433049        9.5977538134
atom         9.5472100000        6.5977900000        3.2514700000 O         0.0000000000         0.0000000000       -59.6427939283     -165.9707837249     -116.7219851975
atom         4.4581900000        0.9632600000        9.4040500000 O         0.0000000000         0.0000000000       -19.6457527061      109.5401059263       19.9305777140
atom         0.5515300000        3.1836200000       10.5971000000 O         0.0000000000         0.0000000000      -113.3336736365      102.1046041217     -178.1788321210
atom         9.1678400000        6.5542600000        5.8368500000 O         0.0000000000         0.0000000000        91.1866334338      -22.2240080979      -88.3998770397
atom         4.3211700000        6.9660400000        6.5262500000 O         0.0000000000         0.0000000000         4.6706585667      -71.3675143644     -185.5501358351
atom         3.2427200000        4.4313600000        5.6340700000 O         0.0000000000         0.0000000000      -173.1539558799      -80.7420286563       16.3930538384
atom         8.1922900000        7.9009200000        1.4867100000 O         0.0000000000         0.0000000000       -43.2304815828       41.8606353088     -112.3722623938
atom        10.9064000000        5.3997300000        6.7102300000 O         0.0000000000         0.0000000000      -125.1516386764       61.6895972803     -153.7618410331
atom         2.6895900000        1.7337600000        1.1066700000 O         0.0000000000         0.0000000000      -162.8858973204      -79.5436082864     -119.4628034177
atom         5.9235100000        9.2729700000       12.2179000000 O         0.0000000000         0.0000000000        -1.6829284314     -130.4029405474       14.4970703232
atom         3.5864400000       10.4591000000       12.6085000000 O         0.0000000000         0.0000000000        48.8078606190       -4.5993036622     -127.3851528395
atom         6.6204600000        6.0912300000        6.0744300000 O         0.0000000000         0.0000000000       126.3930417538      -55.4193286840       -6.9676183080
atom         2.6374400000        3.7931300000        2.9392900000 O         0.0000000000         0.0000000000      -158.1713664061      106.6753893512       17.4876568061
atom        10.2142000000        7.2235200000        8.2373400000 O         0.0000000000         0.0000000000      -202.3432830540       32.7254425917      -17.8029574876
atom         3.3629100000        7.5920400000       11.8675000000 O         0.0000000000         0.0000000000        97.9645467548       -4.2103870115     -101.6876737833
atom         0.6777000000        7.9534100000        3.7876800000 O         0.0000000000         0.0000000000       -15.2959295401      -64.7009032905       62.6941494798
atom         6.2596900000        0.5337900000        2.4783200000 O         0.0000000000         0.0000000000        96.0823806431       33.0973352650      -75.6186021872
atom         1.7726000000        6.8000500000        5.3159800000 O         0.0000000000         0.0000000000       -20.6608882282       65.0958825516      -15.3814319867
atom         4.4207700000        8.9853400000        9.7852400000 O         0.0000000000         0.0000000000       187.0874159365       50.9181257557       16.8414349379
atom         8.1468900000        3.8527600000       10.2863000000 O         0.0000000000         0.0000000000        -3.4560027554       24.8254084614     -180.9741321753
atom         0.7163800000        5.0917000000        3.2455800000 O         0.0000000000         0.0000000000       144.6187281544     -100.6997330886      -33.4169138654
atom        11.2136000000        4.3608800000        8.6811600000 O         0.0000000000         0.0000000000        29.0359694124     -101.8170816990      168.0676831223
atom         7.9242900000        1.7797600000        3.4373800000 O         0.0000000000         0.0000000000        61.4847147850       16.1743838170     -179.5088928529
atom         8.8917700000        4.7009300000        2.0104300000 O         0.0000000000         0.0000000000        56.3758528780      174.0914664437      100.8663941461
atom         2.0922200000        6.1724100000        7.8066300000 O         0.0000000000         0.0000000000       -40.0496019525      156.4327378542      -19.2850335746
atom         9.0452700000        6.3396900000       10.4486000000 O         0.0000000000         0.0000000000        98.4892947775     -115.4004401169       26.2024449267
atom        10.1695000000        3.1841000000        4.3225000000 O         0.0000000000         0.0000000000       -22.1466831114      -82.5901697072      190.5800397553
atom         2.8541000000        3.8566400000        8.5598100000 O         0.0000000000         0.0000000000       -53.2354715425       13.0955168456      -32.3194985399
atom         5.8671900000        7.9787600000       12.3378000000 O         0.0000000000         0.0000000000        11.4493752752      144.6667472583      -17.6508140807
atom         0.8864200000        0.7848300000       13.0596000000 O         0.0000000000         0.0000000000       152.4506606820       74.6832560044       80.9946188074
atom         7.6569900000        6.3264800000       12.6146000000 O         0.0000000000         0.0000000000       -93.3196797219      -98.2053197759      -67.3677745930
atom         8.1156000000        4.3496200000        8.0234900000 O         0.0000000000         0.0000000000         0.0611160176      -36.7052786125      134.7886341841
atom         7.8823800000        7.5475900000        7.9522600000 O         0.0000000000         0.0000000000       214.4761376762      -36.0219054567       28.5791750729
atom         3.8457200000       10.2898000000        7.0522500000 O         0.0000000000         0.0000000000        96.1976839867     -118.6342558573       51.6260384415
atom         1.6597300000        1.6684700000        8.1716100000 O         0.0000000000         0.0000000000       -45.8015348218     -109.9698463043       26.3074736634
atom        11.2708000000        2.7418900000        1.7604400000 O         0.0000000000         0.0000000000       111.0262389162      113.0509729716     -117.2363829497
atom         2.8232000000        2.2793300000       11.3011000000 O         0.0000000000         0.0000000000       -57.9063172146       73.5631649238       51.7266933686
atom         2.3668200000        8.4166600000        7.8467600000 O         0.0000000000         0.0000000000       -46.7286142735     -146.2079523279       70.6700147005
atom         1.0966500000        4.0833200000        0.2893100000 O         0.0000000000         0.0000000000       -96.2244586334     -105.4144645033      125.0159083929
atom         4.3959000000        6.3318800000        4.2694800000 O         0.0000000000         0.0000000000         0.6949636085       29.0052762655      189.3568813465
atom         3.8910300000        1.0364800000        3.3127500000 O         0.0000000000         0.0000000000        42.4012733788       10.4860860657     -133.4257403644
atom         9.8137400000        2.2146600000        6.4412200000 O         0.0000000000         0.0000000000        32.0663064144       86.4749534316     -176.1773911659
atom         7.3310800000       10.3238000000        0.6972700000 O         0.0000000000         0.0000000000       -68.3491904331       51.8609698251      -44.2121872355
atom         3.2899000000        1.8270500000        5.6920700000 O         0.0000000000         0.0000000000        42.8603539825     -103.2437985981      -37.5373578534
atom         6.2017000000        1.1803400000        5.4175400000 N         0.0000000000         0.0000000000        90.6764388744      165.4713925818       92.6070951354
atom         6.7781100000        4.0427800000       12.9133000000 N         0.0000000000         0.0000000000       149.2413153668      369.8691050216      -62.7359605451
atom         4.5827200000        4.5518900000       10.6134000000 N         0.0000000000         0.0000000000       126.2519097159     -139.2175244435      -89.0616675342
atom         0.7046100000        0.3639700000        6.2594500000 N         0.0000000000         0.0000000000       -68.7099951903     -353.2612223228      -35.9993742038
atom         2.4403100000        8.9652400000        1.8615600000 N         0.0000000000         0.0000000000        22.7386500632     -213.2765543030        1.6304712934
atom         7.5861100000        1.9777300000        1.1717700000 N         0.0000000000         0.0000000000        -2.7175894429     -116.1341697082      202.9031962104
atom         7.7898000000        4.3222000000        4.8570300000 N         0.0000000000         0.0000000000      -159.8998124593      283.5683638815      197.8470509135
atom         5.1559700000        9.0941100000        4.5666600000 N         0.0000000000         0.0000000000       344.1295796510     -184.4312460785      -77.7166380507
atom         5.3049600000        3.4896800000        3.9075300000 N         0.0000000000         0.0000000000        18.8230499881      -14.6249824160     -213.0556843331
atom         1.2344900000        0.6648600000        3.4961100000 N         0.0000000000         0.0000000000       -60.1840374423      173.1097985881       75.1642932788
atom         5.7010000000        5.9191200000        1.5654600000 N         0.0000000000         0.0000000000       130.5862729871      -31.7077059427      172.0735683140
atom         9.5441600000        8.7765200000       11.6877000000 N         0.0000000000         0.0000000000       -93.9509755111      177.6483242288      -78.0082277569
atom         7.7979700000        1.0235300000        7.8982500000 N         0.0000000000         0.0000000000       -81.6836584598       92.9729366745      191.8122227059
atom         6.1665300000        6.6481000000        9.6953000000 N         0.0000000000         0.0000000000      -139.0579977679      -67.5074490155     -142.7272874577
atom         5.2073900000        2.7326600000        7.6270100000 N         0.0000000000         0.0000000000       -24.2591411933      209.8642628650      -87.1701338788
atom         9.5646200000        1.6265500000        9.7956700000 N         0.0000000000         0.0000000000       161.3762537153       34.6649426851     -142.7528556279
atom        10.3174000000       10.0462000000        8.5095000000 N         0.0000000000         0.0000000000      -220.1163970000      -48.1961951868       -2.3371917328
atom         0.8837400000        1.6126500000        3.9518100000 N         0.0000000000         0.0000000000        78.3735862593     -176.8312371528      -85.7074440508
atom         4.0502200000        3.7108200000        0.1351500000 N         0.0000000000         0.0000000000       -76.9637263596      191.1428903647      -15.5149030969
atom         0.3125800000        8.5348100000        5.9782600000 N         0.0000000000         0.0000000000        75.1352796324      225.0645464931       13.6493543548
atom         2.7879600000        6.5205900000        1.9985900000 N         0.0000000000         0.0000000000       -54.5840763000      375.6355741646      -18.2289344561
atom         1.5494600000       10.5567000000       10.1769000000 N         0.0000000000         0.0000000000      -202.2699158569       45.8752180593       86.0575056576
atom         1.7200000000        5.4795700000       10.8485000000 N         0.0000000000         0.0000000000      -171.6933967208      322.0714429713      101.7223826152
atom        10.6367000000        6.1832000000        0.3473900000 N         0.0000000000         0.0000000000       115.4327607280      126.4415945318      122.9499823216
atom         6.7224600000        2.0115900000        5.9403900000 N         0.0000000000         0.0000000000       -96.7033808815     -166.3087346424     -106.7853876314
atom         5.2251200000        8.6515600000        1.7418900000 N         0.0000000000         0.0000000000         8.6911411844        8.6647409132      -16.8843157134
atom        10.0109000000       10.4440000000        3.6345500000 N         0.0000000000         0.0000000000        81.7360829259     -119.9006376727     -360.7202476656
atom         0.7331700000        7.6140900000       11.5647000000 N         0.0000000000         0.0000000000        78.1519219736     -165.5514778876      -62.8068380933
atom         7.2614100000        1.4328500000       11.3797000000 N         0.0000000000         0.0000000000      -195.5480587650       49.3968501596       68.2740042217
atom         8.9265200000        9.4333400000        6.0954400000 N         0.0000000000         0.0000000000      -141.5044226277      141.0601445560      -85.8730409846
atom         6.3452700000        5.7053700000        2.4482900000 N         0.0000000000         0.0000000000      -124.2530533993       54.2245422627     -176.3824608748
atom         5.1483900000        3.7559100000        7.1843200000 N         0.0000000000         0.0000000000         9.4884737666     -212.5851157230       97.7631322083
atom         5.4212100000        3.4347000000        2.8039700000 N         0.0000000000         0.0000000000       -22.6654052030       -3.6051615907      213.7398483060
atom         6.2348200000        1.7176400000       11.6892000000 N         0.0000000000         0.0000000000       185.0700047672      -58.7932200032      -54.4291594571
atom         9.9877000000        2.2937500000       12.4098000000 N         0.0000000000         0.0000000000        71.6543352905      101.4090099202       74.9258950556
atom         9.0475400000        9.6901100000       11.2837000000 N         0.0000000000         0.0000000000        96.6927694513     -183.2579930344       84.3487475394
atom         7.4263700000        1.4849500000        8.8445100000 N         0.0000000000         0.0000000000        64.0918047345      -86.4040308200     -198.2790733562
atom         5.4366300000        6.2840000000        8.9380500000 N         0.0000000000         0.0000000000       144.9188277388       77.6368780665      145.2711311576
atom         8.2129900000       10.1748000000        5.6710500000 N         0.0000000000         0.0000000000       146.3788915728     -155.6611945035       80.3571499804
atom        10.3439000000        1.7448500000        9.0082500000 N         0.0000000000         0.0000000000      -142.8006375213       -7.4796836519      157.3103131483
atom         9.2167400000        9.8554200000        8.5138100000 N         0.0000000000         0.0000000000       227.7905374676       23.8605078566       -3.3671943804
atom         0.5384900000        0.1536800000       10.6187000000 N         0.0000000000         0.0000000000       210.0574971627      -37.6370197801      -86.8604169035
atom         3.6902100000        4.7621100000        0.1063000000 N         0.0000000000         0.0000000000        68.1338806938     -201.0340369626        3.6899926243
atom         6.1802400000        9.5873200000        7.2957600000 N         0.0000000000         0.0000000000      -364.4102373391      105.6512173814      -41.1147639398
atom        10.0548000000        3.5177000000       12.4995000000 N         0.0000000000         0.0000000000        24.0754066751      -49.9914801826       -0.0527841677
atom         5.2848600000        3.8448600000       10.1285000000 N         0.0000000000         0.0000000000      -132.7315647144      123.6304431516       92.1745589346
atom        10.5739000000        9.6482900000        1.3791400000 N         0.0000000000         0.0000000000       -41.1566009393       77.0848887313      168.3788340630
atom        11.2448000000        6.8657200000        0.9826900000 N         0.0000000000         0.0000000000      -121.7504849338     -128.8172093375     -121.1136079799
energy    -32840.8309578669
charge 0
end
begin
comment generated by PY
lattice        11.4200000000         0.0000000000         0.0000000000
lattice         0.0000000000        10.5800000000         0.0000000000
lattice         0.0000000000         0.0000000000        13.1400000000
atom         8.4537700000        6.9771100000       10.9640000000 H         0.0000000000         0.0000000000       -54.7144823046      -15.9954732757       -1.5056399452
atom         7.3148700000        3.0497500000        2.9950200000 H         0.0000000000         0.0000000000       -13.6615727554      -47.5696767124      -41.1406005744
atom         6.6717600000        5.3107700000        6.4446900000 H         0.0000000000         0.0000000000       -23.1257661283      -55.5440945468      136.7909017777
atom         7.3644000000        7.0274700000       11.8109000000 H         0.0000000000         0.0000000000         3.7421955997      -27.1547602915      -97.7920214847