begin
comment generated by PY
lattice        11.4200000000         0.0000000000         0.0000000000
lattice         0.0000000000        10.5800000000         0.0000000000
lattice         0.0000000000         0.0000000000        13.1400000000
atom         6.5748700000        9.9363000000        8.1350400000 H         0.0000000000         0.0000000000       -38.5074335597       54.9220764974        4.2046331269
atom         2.3076200000        2.4671000000        3.2365700000 H         0.0000000000         0.0000000000      -134.8863015423      -23.3531655719      -74.4700049765
atom         2.1039500000        6.3319900000        5.2931400000 H         0.0000000000         0.0000000000        31.6549628145      -12.5251292116       -9.8578689393
atom         2.9710200000        6.8932500000       12.5162000000 H         0.0000000000         0.0000000000       113.5169106927       58.7879953629        6.4100893055
atom         2.0161000000        3.2803900000       12.4846000000 H         0.0000000000         0.0000000000       -99.8815651840      -28.3778738123       56.7016479750
atom         6.8941000000        4.7046100000        1.6059700000 H         0.0000000000         0.0000000000         0.3860811298      -46.7272453449      -44.8173816800
atom         6.6224400000        6.1575900000        2.8163400000 H         0.0000000000         0.0000000000      -114.2292900973       19.6407757731        7.0416819808
atom         8.9049200000        9.1411200000        7.8118200000 H         0.0000000000         0.0000000000        -6.3274814730       99.7985782350      -17.3525487567
atom         6.8214500000        9.0769900000        3.3549400000 H         0.0000000000         0.0000000000        96.1063507452       69.4047271293       -8.8088870831
atom         8.1215200000        6.5433000000        9.6677400000 H         0.0000000000         0.0000000000        51.5805251416      -66.1010419312      -22.0765738164
atom         9.2128100000        4.9663700000        3.4523500000 H         0.0000000000         0.0000000000        -4.6461627816      -69.6085478945       70.0785903396
atom         4.0356400000        4.2553800000        4.0567100000 H         0.0000000000         0.0000000000       -17.3841589598      -99.3487745269      -59.0176544164
atom         9.7367800000        1.3169000000       11.2181000000 H         0.0000000000         0.0000000000       -19.1868181780      -27.1860178022      -38.7191528266
atom        10.1755000000        8.5537200000        0.4003500000 H         0.0000000000         0.0000000000       -53.8224611895      -20.8401945009      -62.0706405050
atom         1.3302300000        1.8270100000        4.8324500000 H         0.0000000000         0.0000000000        15.5375645697     -154.4517559061       46.7307547410
atom         0.9034600000        2.1719300000       12.1432000000 H         0.0000000000         0.0000000000        28.9094327479       63.2432059366       90.4955599841
atom         7.7476900000        0.7045900000       10.7976000000 H         0.0000000000         0.0000000000      -119.5161446728       78.7639478664      -69.8693024085
atom         5.2784700000        8.6342400000       10.0708000000 H         0.0000000000         0.0000000000       -88.4593687438       63.7359098350        7.7115817335
atom         7.2843300000        5.5561700000       10.3127000000 H         0.0000000000         0.0000000000       120.5978622265      -30.1222518875      -65.6084740870
atom         4.7722500000        9.1587000000        2.9319600000 H         0.0000000000         0.0000000000        49.7474760617      -43.9030854814       52.7371018407
atom         1.4435800000        3.5230600000        9.5727000000 H         0.0000000000         0.0000000000        32.3949224208       72.7876088863      104.7022197267
atom         6.6325800000        3.4618500000        8.5592900000 H         0.0000000000         0.0000000000        80.7001785613       34.5765116737       -5.6767291433
atom         0.7666000000        1.8831300000        3.0107200000 H         0.0000000000         0.0000000000        90.0442166938       43.4656293356      -24.7775294568
atom         5.3999500000        1.5573300000        1.3696300000 H         0.0000000000         0.0000000000        72.5092141188      -36.9854324957       72.8172899458
atom         0.4493400000        5.9841900000        2.7772000000 H         0.0000000000         0.0000000000        19.1667258763      -93.0789690380      -25.3219859137
atom         0.5118200000        9.7626400000       11.7090000000 H         0.0000000000         0.0000000000        75.8617434990       62.4974713023       44.8646608155
atom         8.4414400000        5.6948800000        6.7462700000 H         0.0000000000         0.0000000000       -26.9326913040        6.1545040172       66.0250352749
atom         4.6910100000        5.8920800000       12.2322000000 H         0.0000000000         0.0000000000        62.3180657091      -88.0056420972       63.1086871387
atom         7.5913700000        3.2706900000        0.8708200000 H         0.0000000000         0.0000000000       -78.3986446458       87.9118137985       14.4858475141
atom         5.9103500000        7.8740000000        7.1935600000 H         0.0000000000         0.0000000000       -33.0199789565      -70.0934769793       65.2690223456
atom         1.9274400000        0.1698000000       12.9696000000 H         0.0000000000         0.0000000000       -33.8132865283      -60.9260017576      -57.2789414088
atom         7.7005300000        8.9483500000        0.9812800000 H         0.0000000000         0.0000000000       -41.5741215395      112.8137245851      -18.7188546873
atom         8.5053600000        2.2717500000        7.8080500000 H         0.0000000000         0.0000000000        19.3114191366      -11.9956194269      -76.4975634947
atom         4.5819500000        0.6420600000        9.3468300000 H         0.0000000000         0.0000000000        27.0571575117     -109.6309872617        5.1478691291
atom        10.3838000000        9.1354800000        4.6891600000 H         0.0000000000         0.0000000000       -69.2253998551     -120.5096484194       14.3225966476
atom         5.3229800000        7.9148700000        4.0208300000 H         0.0000000000         0.0000000000       -16.0379640760       39.9887847152       11.6390959080
atom         5.1356300000        5.9771600000        6.8244200000 H         0.0000000000         0.0000000000        -1.8071602531        5.6701071871      116.3902596000
atom         6.8205800000        1.8442600000       11.1415000000 H         0.0000000000         0.0000000000        16.1675227560      -89.4280551822     -108.8851264923
atom        11.1629000000        7.2481200000       10.8055000000 H         0.0000000000         0.0000000000        -0.6530851546      -10.4600729573     -104.9740699355
atom         2.8610200000        8.7598000000       11.6191000000 H         0.0000000000         0.0000000000       -47.1125168765      103.8917344377      -75.3183510428
atom         2.1790200000        0.8353600000        1.4711500000 H         0.0000000000         0.0000000000        67.5446633297      -53.2969297094      -60.0750720022
atom         7.3183900000        5.7306400000        6.2690200000 H         0.0000000000         0.0000000000        23.6715171972      -51.3393310142      150.3121443670
atom         8.4473300000       10.1351000000       11.8599000000 H         0.0000000000         0.0000000000        12.2938430424      -47.1164194924       75.8017451552
atom         0.4119900000        9.6433700000        1.9259800000 H         0.0000000000         0.0000000000       -20.5991833446       77.6325395724      -55.3945779965
atom         0.7525600000        4.1460500000        0.6738900000 H         0.0000000000         0.0000000000       -38.3313262850       37.9178133707        6.5672644667
atom         0.9873100000        8.8140300000        6.8708200000 H         0.0000000000         0.0000000000       -18.1334700444       -3.0793017786      -48.3178156054
atom         4.4415600000        7.4332800000        0.1397200000 H         0.0000000000         0.0000000000       -78.1100071783      -15.7958895576      -91.9550386987
atom         7.8162200000       10.2990000000        2.9482400000 H         0.0000000000         0.0000000000       -19.5575342176      -67.6323750204       32.9115613549
atom         0.6908200000       10.4288000000        5.6759000000 C         0.0000000000         0.0000000000       144.5766820609     -131.9964216729      -59.7037395813
atom         9.2449100000        4.2749000000        4.2362800000 C         0.0000000000         0.0000000000        14.0539085351       37.7160430905       26.1932096544
atom         6.8309500000        0.6531300000        0.8153600000 C         0.0000000000         0.0000000000       114.3377881571      -55.0470782545     -180.8176273535
atom         4.0251600000        3.7910900000        2.2259200000 C         0.0000000000         0.0000000000       -17.7089476138     -125.6586280407     -187.3353157962
atom         9.4899800000        8.6642200000       12.7900000000 C         0.0000000000         0.0000000000       -77.6953689778       18.6978781247       -1.6308843146
atom         8.4467500000        1.0895100000        6.0472900000 C         0.0000000000         0.0000000000       -81.9781137447      188.9533636559       -2.3931869727
atom         8.8823700000       10.1843000000        7.7982300000 C         0.0000000000         0.0000000000       -69.0794923760       -3.7993627189       99.7362118013
atom        11.0472000000        0.5217100000        0.5731500000 C         0.0000000000         0.0000000000       245.2679231891     -228.5999514940      347.3770921575
atom        10.4163000000        0.3041500000        9.7165500000 C         0.0000000000         0.0000000000       -31.6829843960       58.7920496171      -15.1329480216
atom         0.0567900000        4.1158000000        3.3418000000 C         0.0000000000         0.0000000000      -123.3712679907       11.0496993449       59.0784992509
atom         7.8805900000        5.0658300000        8.5992400000 C         0.0000000000         0.0000000000       -74.5393191863      -40.1066504758     -105.8894521929
atom         3.8545800000       10.3369000000        0.3605700000 C         0.0000000000         0.0000000000      -217.1450310752      120.5098800348       49.1233207975
atom         5.6962100000        7.2317100000        8.0089400000 C         0.0000000000         0.0000000000        39.3707487092       10.0363269182       93.6167474746
atom         0.1790100000        1.2152800000        9.8748700000 C         0.0000000000         0.0000000000        39.9847191388       40.7341937314       78.0174877036
atom         5.5089800000        7.5341500000        2.2861700000 C         0.0000000000         0.0000000000        16.8545102593      148.6035077408       19.2561348371
atom         4.0154300000        5.8822400000        5.0844600000 C         0.0000000000         0.0000000000      -201.6232310582       25.7532842669      -57.4585481793
atom         1.7702300000        5.3587900000       10.5466000000 C         0.0000000000         0.0000000000        -7.1819896349     -133.2972260370      -46.2920752928
atom         8.6103200000        9.6502100000       12.7684000000 C         0.0000000000         0.0000000000      -166.5644093495       43.4624955446       -0.0684979658
atom         6.4825400000        4.3619700000       12.7714000000 C         0.0000000000         0.0000000000      -120.7026962552     -157.3632671781       15.8521701026
atom         4.9506300000       10.1833000000        9.2348100000 C         0.0000000000         0.0000000000      -104.9756614687      116.0977783319        7.6843749986
atom         9.4973100000        8.1717100000       10.5269000000 C         0.0000000000         0.0000000000        19.8488828856       33.1265183528     -164.3157495578
atom        10.2616000000        2.3464600000        6.8529000000 C         0.0000000000         0.0000000000        39.2228947099       15.8433502880       42.8759922852
atom         2.2776200000        9.6506000000       11.0553000000 C         0.0000000000         0.0000000000      -106.0930054703        9.8592901603       58.2858586155
atom         2.7140200000        7.2305300000        8.3412200000 C         0.0000000000         0.0000000000       -30.0530331365      184.8217892246     -155.8644498390
atom         7.5245300000        3.7430800000        8.6969000000 O         0.0000000000         0.0000000000       -42.7845615443       73.2413888788        8.1078730318
atom         7.0949900000        1.2108700000       12.8521000000 O         0.0000000000         0.0000000000       -75.1789853869      -40.4569971772      218.9335343537
atom         2.3248800000        8.5131600000        2.8085000000 O         0.0000000000         0.0000000000        44.3670001793     -248.6223145214     -169.2849981233
atom         0.6647800000        4.9793300000        2.6179300000 O         0.0000000000         0.0000000000       -84.7583734538      -16.1090779908      116.3051453374
atom         7.5768900000        1.4871500000        5.2186800000 O         0.0000000000         0.0000000000       147.5405294474      -83.8725198340      133.6264891228
atom         6.6565700000        3.6678800000       11.7100000000 O         0.0000000000         0.0000000000        15.0703162056      125.2532157481      185.0252464676
atom         0.8312000000        7.0014100000        0.3523100000 O         0.0000000000         0.0000000000       -40.2289020825      128.8301495516      272.8052066466
atom         5.3400300000        4.9022000000        9.6981200000 O         0.0000000000         0.0000000000      -343.8022884374      -94.2846215462      153.6770439552
atom         7.7757800000        9.5060900000        3.4051800000 O         0.0000000000         0.0000000000       -69.2046323866       -2.1662681524      -25.2564995993
atom         9.3519800000        0.8878200000       10.5091000000 O         0.0000000000         0.0000000000       130.9434381801      -16.6075056799      -64.1862943227
atom         3.9647200000        3.4040700000        3.5609200000 O         0.0000000000         0.0000000000        11.3167226781      160.0586272245     -109.4266970802
atom        10.9346000000        7.0709300000        7.6942600000 O         0.0000000000         0.0000000000        90.2920350114      -30.3586147483      266.6078782533
atom        10.2120000000       10.4804000000        8.4187600000 O         0.0000000000         0.0000000000       -64.6932147294       48.9884360151       93.4444718388
atom         4.5205200000        9.4184300000       10.2508000000 O         0.0000000000         0.0000000000       208.7498922738      -16.2942343668     -181.6038765585
atom         5.6115600000        6.3179000000        2.8484500000 O         0.0000000000         0.0000000000       118.2473766662       91.3407039395      -86.2472436056
atom         5.1403300000        4.9331400000       12.7071000000 O         0.0000000000         0.0000000000        74.5085267569       77.2161579411      -24.1276654161
atom         8.1005700000        7.8805100000        6.3986400000 O         0.0000000000         0.0000000000       277.3331854316      -41.1633943215      -65.7370901821
atom         7.9180600000        7.0683700000        3.3564900000 O         0.0000000000         0.0000000000       184.7718165693      -85.4112384679      148.7994444902
atom         9.9187100000        4.4802800000       12.5312000000 O         0.0000000000         0.0000000000        83.8974430582     -313.4753649729       55.8126461838
atom         8.3610900000        7.1501100000        0.9898000000 O         0.0000000000         0.0000000000       151.6044422629     -242.9787482476       -1.1106755967
atom         2.1595400000        9.8287700000        9.8301100000 O         0.0000000000         0.0000000000         0.8177802706      -25.2478789535      197.6382170665
atom         6.0661200000        1.1104900000        1.9504100000 O         0.0000000000         0.0000000000         4.4455699156      -17.5839556684     -212.8692893020
atom         3.5850400000        6.9710300000        9.2133100000 O         0.0000000000         0.0000000000      -174.0108298490       39.0668287308     -165.0585402062
atom        10.4740000000        1.0660200000       12.9944000000 O         0.0000000000         0.0000000000       -53.1188587179       53.7920868396      -69.8989664501
atom         4.6101400000        9.7898200000       12.8274000000 O         0.0000000000         0.0000000000       -83.2219597094       74.9951535831       90.6063747957
atom         8.8758400000       10.5512000000        6.2167500000 O         0.0000000000         0.0000000000        -5.9623915972       27.3058492083       77.0515529781
atom         0.9905100000        1.9558000000       10.4595000000 O         0.0000000000         0.0000000000      -171.8895775070     -169.4287831302     -112.4465504542
atom         9.9704800000        5.5003400000        1.3844300000 O         0.0000000000         0.0000000000      -230.9455736814      166.2234857384      -75.8840035030
atom         1.8194000000        6.5801700000       10.5241000000 O         0.0000000000         0.0000000000       -19.7786233703     -261.8450151750       36.0538452770
atom         6.9287400000        1.2034400000       10.3495000000 O         0.0000000000         0.0000000000        84.9579794365       17.4996532023      175.7535909342
atom         3.1682100000        4.6132600000        7.5741300000 O         0.0000000000         0.0000000000      -195.5106729233     -241.3733742528      -86.0115144334
atom         5.5361700000        7.9589800000        1.0663500000 O         0.0000000000         0.0000000000       -19.5362960675     -103.7206561337      198.6090025711
atom         5.3793100000       10.1322000000        8.0546300000 O         0.0000000000         0.0000000000        73.7550565686      -60.0193488509      163.5750630771
atom         1.4441700000        2.4332400000        2.6343700000 O         0.0000000000         0.0000000000        45.0742430574      -32.9929800359      107.3475674695
atom         6.1160700000        7.6616100000        9.1360900000 O         0.0000000000         0.0000000000       -91.2593595520      -83.5785758099     -169.4804863330
atom        10.1705000000        4.8250800000        6.7265900000 O         0.0000000000         0.0000000000       188.5957107087       63.4634337673     -113.1061558353
atom         8.4273300000        4.2850600000        5.1899100000 O         0.0000000000         0.0000000000       147.2136706751      -26.4985024597     -152.6604359323
atom         3.8193100000        7.3613400000       12.3932000000 O         0.0000000000         0.0000000000        -7.0849127194      -65.1830254967       91.3647683022
atom        10.2863000000        9.3548900000       10.6805000000 O         0.0000000000         0.0000000000       -53.9468437512      -89.0379209435       -0.6780459139
atom         6.1302900000        2.8500800000        4.1195800000 O         0.0000000000         0.0000000000       198.9619532026      296.8984178529      -15.5334602857
atom         9.1236500000        7.6323400000       11.6920000000 O         0.0000000000         0.0000000000        98.0471272117      142.1203702950      -23.2388525958
atom         6.4462000000        8.5802100000       11.6386000000 O         0.0000000000         0.0000000000        20.9648154087     -356.8308093581       69.1262939663
atom         7.7946000000        0.2137900000        8.4561300000 O         0.0000000000         0.0000000000       129.7758576230     -121.5815557674     -128.8558335458
atom         0.4203900000        5.4343100000        5.5300900000 O         0.0000000000         0.0000000000       -87.8314623255      -31.9649218068       67.5344047893
atom         3.6897600000        0.8609400000        5.2505300000 O         0.0000000000         0.0000000000       -53.2099714314      -85.2180701013     -310.4306164296
atom         5.0871600000        6.0386900000        7.8261300000 O         0.0000000000         0.0000000000        98.3554972263      142.7969940337     -112.0573153541
atom         8.6965300000        8.1250100000        9.4495400000 O         0.0000000000         0.0000000000        81.0282050321       -7.8329829448      173.7952024885
atom         5.1896900000        5.8712300000        5.1986800000 O         0.0000000000         0.0000000000      -153.2160131908       -8.6655624946       -1.5923194330
atom         0.3600000000        9.2862300000        6.0324400000 N         0.0000000000         0.0000000000       117.0459356340      325.1955854851      -52.2884960291
atom        10.6722000000        3.6964000000        4.0372800000 N         0.0000000000         0.0000000000        22.6899313744      171.3600846246     -126.3514824143
atom         7.6665200000        5.4939500000        7.3710600000 N         0.0000000000         0.0000000000        81.5571741445       -1.3518479570       45.2404693806
atom         4.0066300000        3.6198600000        1.0891600000 N         0.0000000000         0.0000000000        -1.1132559969       52.6557392830      357.1495211207
atom         2.4535600000        1.7512900000        7.3987500000 N         0.0000000000         0.0000000000        66.5255594910     -159.9869033328      154.0967807062
atom        10.5487000000        4.2593500000        9.0849800000 N         0.0000000000         0.0000000000       -32.5450396908     -131.1829661975      223.6656731429
atom         5.4839400000        8.4875700000        3.2649400000 N         0.0000000000         0.0000000000       -43.7306555677     -158.8914273403     -214.3562530442
atom         0.2605900000        0.0154000000        1.4941800000 N         0.0000000000         0.0000000000      -154.9708140131       97.4112994016     -232.5660519200
atom         1.5516600000        0.6716300000        5.0928200000 N         0.0000000000         0.0000000000      -258.7950511456      -61.8247765805       92.6157327703
atom         9.6010000000        8.1065500000        4.8067200000 N         0.0000000000         0.0000000000         8.8545288540       -6.8500575841      143.9431783034
atom        10.0941000000        9.4979700000        3.0033600000 N         0.0000000000         0.0000000000        75.2840869095      309.1560624417      179.7425660122
atom         5.0905200000        2.8822600000        7.5943600000 N         0.0000000000         0.0000000000        77.6877288582     -181.3542562740      -68.3428022107
atom         3.6702700000        2.3472200000       10.5509000000 N         0.0000000000         0.0000000000        27.9825735087      -80.1730091363      345.5029773122
atom        11.3662000000        2.6142700000        6.9405800000 N         0.0000000000         0.0000000000      -317.7730273040      -83.0763853834      -37.8120676803
atom         1.1640200000        2.8310600000       12.9617000000 N         0.0000000000         0.0000000000        -3.6299173354      -54.8109493445     -104.5253435713
atom         2.0856900000        7.8326700000        7.3665000000 N         0.0000000000         0.0000000000       180.7611344388     -193.7013165869      299.6829629902
atom         1.7375000000        4.0816900000       10.5042000000 N         0.0000000000         0.0000000000       -19.3111336917      329.8014062047      -68.2815093133
atom         7.5254500000        9.8881400000        0.4317400000 N         0.0000000000         0.0000000000       153.2523544213      -41.7803040328       40.4714524005
atom         8.3068200000        5.4732700000        9.6451900000 N         0.0000000000         0.0000000000      -213.0677016561       87.5967754398      -74.8187786042
atom         2.8720300000        0.3444100000        0.8015000000 N         0.0000000000         0.0000000000       220.7719191292     -122.5522974216      -79.8895722870
atom        10.7533000000        7.3218600000        9.8656600000 N         0.0000000000         0.0000000000        26.6549848282       -1.7467615519       54.5645476925
atom         8.8804900000        2.1286500000        6.8511400000 N         0.0000000000         0.0000000000       213.5006842530      -82.2455881752      -36.7775277797
atom         1.4388000000       10.2267000000       12.0253000000 N         0.0000000000         0.0000000000        75.1700176209      -87.8008371787     -158.7614922529
atom         2.8551500000        5.8964000000        4.8282100000 N         0.0000000000         0.0000000000       326.7908924987       -0.0559979368       85.6277177586
atom         3.8223600000        8.6407700000        5.4253000000 N         0.0000000000         0.0000000000        98.7173073430      108.4041883532      159.2172366600
atom         0.2228400000        3.4206700000        0.4162200000 N         0.0000000000         0.0000000000        45.6492107671      -59.4700659147     -100.0993108586
atom         2.4184900000        7.4956100000        2.1138300000 N         0.0000000000         0.0000000000      -116.9530868241      268.4865062996      161.6572607811
atom        11.3809000000        6.9638800000        8.8663500000 N         0.0000000000         0.0000000000      -183.8210851215       73.3843769911     -125.1106830958
atom         5.4245400000        1.9095800000        7.1710900000 N         0.0000000000         0.0000000000       -58.5026987891      181.7279395874       77.2821561529
atom         3.7574200000        2.0896300000       11.6982000000 N         0.0000000000         0.0000000000       -29.9014354459       75.7308501803     -346.5519173812
atom         0.7269700000        7.5226900000        1.4808700000 N         0.0000000000         0.0000000000       108.0340513350     -154.5551704121     -254.3819179216
atom         4.2664600000        4.6316400000       10.1417000000 N         0.0000000000         0.0000000000       351.4202091280      103.7759028800     -147.0003471263
atom         9.3311000000        7.8373200000        6.1708000000 N         0.0000000000         0.0000000000      -241.4139771899       93.8348926270     -113.4152091559
atom         8.7456300000        6.7433000000        4.0865500000 N         0.0000000000         0.0000000000      -170.0993351863      134.7004706892     -125.6227566792
atom        10.2649000000        3.3428200000       12.7482000000 N         0.0000000000         0.0000000000        -9.6725405766      351.8436748381      -23.0342471066
atom         8.8928800000        6.0132200000        0.8889200000 N         0.0000000000         0.0000000000        70.9602233714       80.7093344430       89.3317937136
atom         9.4031600000        2.3245800000        2.0840800000 N         0.0000000000         0.0000000000       -11.0443247296       -6.7143998832        6.1787206726
atom         2.7631700000        1.0130600000        8.1825900000 N         0.0000000000         0.0000000000       -55.3041748908      145.1512367245     -150.9220284964
atom         2.4251100000        3.7800400000        7.2227500000 N         0.0000000000         0.0000000000       179.9367528845      259.1554468698       90.7689725381
atom        10.3671000000       10.5110000000        3.5797400000 N         0.0000000000         0.0000000000       -82.1521547786     -314.6079569693     -163.2697465965
atom         6.7793300000        3.9836800000        0.9232300000 N         0.0000000000         0.0000000000        41.5369910467       33.3211117488     -213.0955433427
atom         6.5029800000        7.4386700000       11.8402000000 N         0.0000000000         0.0000000000       -15.5012750361      350.7310591573      -65.3764422501
atom        10.3816000000        3.6874000000       10.0423000000 N         0.0000000000         0.0000000000        39.2855739655      120.5220475920     -222.6928958639
atom        11.2141000000        4.9945800000        6.3167200000 N         0.0000000000         0.0000000000      -105.3815995294       -8.6791755037       53.6047912159
atom         3.3627000000        0.5357600000        4.1739800000 N         0.0000000000         0.0000000000        67.2651490782       97.2406821586      320.3611480114
atom         4.3006400000        9.2274500000        6.2486700000 N         0.0000000000         0.0000000000       -96.9182634617     -118.1212893789     -174.6357679994
atom         8.9704800000        1.9033800000        2.9563600000 N         0.0000000000         0.0000000000        -0.2616740841        4.4078364109      -17.8834535925
atom         6.7532100000        3.8418200000        4.0478700000 N         0.0000000000         0.0000000000      -174.9790399772     -283.3292803875       11.5276061631
energy    -32035.1814025236
charge 0
end
begin
comment generated by PY
lattice        11.4200000000         0.0000000000         0.0000000000
lattice         0.0000000000        10.5800000000         0.0000000000
lattice         0.0000000000         0.0000000000        13.1400000000
atom         7.7646000000        9.7295900000       11.3322000000 H         0.0000000000         0.0000000000       124.3726731658      -64.7861584183       31.9492594313
atom         2.1254100000        0.9643700000        4.4535300000 H         0.0000000000         0.0000000000       -68.3955084626       13.1588815496      -43.3205253197
atom         3.3569200000        8.1281800000        5.1133100000 H         0.0000000000         0.0000000000         8.8312091632      -38.1155603955       75.7530823479
atom         2.5101300000        5.0509000000       10.9445000000 H         0.0000000000         0.0000000000       -91.5736002945       83.4598937622       59.3937724510