begin
comment generated by PY
lattice        11.4200000000         0.0000000000         0.0000000000
lattice         0.0000000000        10.5800000000         0.0000000000
lattice         0.0000000000         0.0000000000        13.1400000000
atom         4.4270200000        8.6954300000       10.4011000000 H         0.0000000000         0.0000000000       -60.2441728029       14.1788173386      -29.4619628554
atom         4.1603900000        1.7378500000        2.5061100000 H         0.0000000000         0.0000000000        43.7801519745      -81.2687521800      -81.4160415974
atom         0.9131900000        3.4049700000       12.9313000000 H         0.0000000000         0.0000000000       -77.5338093111      -20.5949674637       92.8089121612
atom         1.9180600000        7.8271800000        1.3176900000 H         0.0000000000         0.0000000000       -17.5812305378      105.0239733882      -31.2507864804
atom         2.1126600000        0.1424700000       12.1314000000 H         0.0000000000         0.0000000000        17.8657950796       34.2645043746       67.9718018308
atom         7.9554300000        7.5208400000        5.0347300000 H         0.0000000000         0.0000000000      -102.3674722002      101.7217482489      -86.3689712245
atom         3.8693900000        1.5494500000        8.6902900000 H         0.0000000000         0.0000000000        38.8755498768      -13.5981743469      -26.5338393131
atom         6.4561300000        1.5485600000        3.9610800000 H         0.0000000000         0.0000000000      -102.0119721334      104.0425053873       -0.5843933942
atom         3.8054400000        3.4557200000       12.2179000000 H         0.0000000000         0.0000000000       125.6461294455      -54.0479532287       65.0068540915
atom         3.1055400000        9.9644800000        4.6071500000 H         0.0000000000         0.0000000000        -3.4747062733       -0.0725974202       25.2750664260
atom         2.3230900000        8.5079500000        4.8155000000 H         0.0000000000         0.0000000000        15.4904201961       57.5236957715        0.9659248702
atom         5.6551800000        2.8266200000        4.6273400000 H         0.0000000000         0.0000000000        30.4170953346      -99.2034411471     -109.7371496248
atom         3.0899300000        9.4303000000        9.4552700000 H         0.0000000000         0.0000000000        32.2174080407      -27.7620457970       34.2567904610
atom         5.1139600000        2.7394800000       11.8757000000 H         0.0000000000         0.0000000000       -53.5096317056       54.6847493335      108.6528578624
atom         7.1215000000        2.8179800000        7.3853400000 H         0.0000000000         0.0000000000       -58.4301550738      -53.8851363211      -32.0302861261
atom         2.1866600000        0.2372900000        2.8393500000 H         0.0000000000         0.0000000000       107.1389697139      -42.1738587993      -75.2351453456
atom         0.3862900000        2.2453800000        1.9849700000 H         0.0000000000         0.0000000000         5.0221246817      -82.8466651853        0.7084399740
atom         8.5841300000        3.7805200000        9.4630200000 H         0.0000000000         0.0000000000        41.9985557612     -118.6916042204       27.9424681848
atom         9.4001300000        3.3847400000        3.6863500000 H         0.0000000000         0.0000000000       169.5787903005       62.5996902425       10.6856968451
atom         9.0792800000        2.8501800000        8.5771300000 H         0.0000000000         0.0000000000        -7.2224580175       -4.2696268187      134.8053046909
atom        10.0836000000        9.0597500000        5.4886700000 H         0.0000000000         0.0000000000        -4.3781527020       99.6253965833     -135.1864945635
atom        10.4840000000        3.7379600000        7.8275300000 H         0.0000000000         0.0000000000        -4.3548492792      -71.3224801297      -37.7964619672
atom         6.9602800000        8.6394400000        5.2840500000 H         0.0000000000         0.0000000000        51.5876949052      -75.5012544567     -110.1683517197
atom         7.7816200000        4.7757000000        7.3536700000 H         0.0000000000         0.0000000000        51.7488485593       31.2130491921       38.4694519492
atom         1.8757100000        4.3162400000        1.9295100000 H         0.0000000000         0.0000000000         4.0229378229      -19.4715632312      164.3224761105
atom         1.6913900000        9.7455800000        5.7006900000 H         0.0000000000         0.0000000000        72.9465883629       -3.8010469554      -64.2671371721
atom        10.8128000000        2.6845200000        6.6521400000 H         0.0000000000         0.0000000000       -75.2261260304       48.9688207612      125.5561408826
atom         2.9006000000        2.3198800000        3.5542300000 H         0.0000000000         0.0000000000        16.7938936519      -48.9072382018       35.6635103107
atom        10.4758000000        8.4460200000        0.0593000000 H         0.0000000000         0.0000000000        56.5566209956       12.4878935364        2.1597428954
atom         2.4988200000        0.8399400000        4.3095400000 H         0.0000000000         0.0000000000        -7.5896380709        4.8865109312      -13.2341080151
atom        11.0528000000        2.9004500000        0.6411900000 H         0.0000000000         0.0000000000        79.9860905081       43.4304754087      -23.5790910293
atom         4.8832800000        7.2811400000        4.6926800000 H         0.0000000000         0.0000000000       -73.2795285542      -35.2291871666     -161.5368371068
atom        10.7975000000        3.5946800000        4.6460500000 H         0.0000000000         0.0000000000       -57.7867727247       14.7367276925     -134.8802497453
atom         3.0828000000        4.6829000000        7.4085800000 H         0.0000000000         0.0000000000        11.8669606298       12.7363996914        1.3314406431
atom         9.4593800000        3.6704100000        0.4244800000 H         0.0000000000         0.0000000000       -15.0315609081       73.0866077193      110.4613505997
atom         6.2723800000        1.9601500000        0.8196800000 H         0.0000000000         0.0000000000        21.5762891335       35.1067571617       19.7712021686
atom         7.3642600000        4.1390500000        6.1175200000 H         0.0000000000         0.0000000000       -35.9707706313       -2.2477242467       69.6950539871
atom         1.0601500000        3.7136800000        3.0952300000 H         0.0000000000         0.0000000000       104.1406606491       69.5797598245      -19.3750190216
atom         0.9425700000        3.1257100000        9.6079700000 H         0.0000000000         0.0000000000       -13.0398226266      -89.8575856607      143.4495498318
atom         9.3634500000       10.2086000000        5.1968700000 H         0.0000000000         0.0000000000        95.0793876850      -72.1336007720      -76.4363154304
atom         0.3905600000        0.9163800000        5.6842900000 H         0.0000000000         0.0000000000        82.7579683206      -31.0402945407       52.3954084730
atom         4.5455600000        4.7097000000        6.7253300000 H         0.0000000000         0.0000000000       -59.6892824301        2.8542525786      107.2230208605
atom         1.0946700000        1.8504100000       10.7125000000 H         0.0000000000         0.0000000000       -21.8786501817      118.9568770304      -52.0419431561
atom         6.2462200000        4.7990900000        7.3554400000 H         0.0000000000         0.0000000000        98.6014960326      -86.6783161243      -33.7385574079
atom         4.2393000000        7.3707100000        0.7322600000 H         0.0000000000         0.0000000000        62.4987709755      121.5247821356      -68.4987826212
atom         3.3278600000        5.7100400000        1.3803900000 H         0.0000000000         0.0000000000        55.8125231304      -47.1436835956      -62.0222031356
atom         9.4565600000        4.6480700000        1.7244700000 H         0.0000000000         0.0000000000        40.8258804923       27.0944205066      -12.9785563888
atom         4.3557000000        7.2116600000        2.7882500000 H         0.0000000000         0.0000000000        27.4518003345      -36.6728203837      170.2808037298
atom         7.9333100000        7.1507000000       12.0605000000 C         0.0000000000         0.0000000000      -109.9546814469     -163.6102607358      168.9355610810
atom         6.9293100000        3.5426700000        2.0571900000 C         0.0000000000         0.0000000000      -144.8545513220     -159.4992360686     -141.2506626974
atom         4.0874400000       10.5411000000        2.1951000000 C         0.0000000000         0.0000000000        12.6803677220      -26.8101596958      110.5895544244
atom         1.8770100000        5.1917600000       10.3594000000 C         0.0000000000         0.0000000000       119.6257140520       32.2220763578       42.2506554996
atom         0.4723300000        6.0367800000        1.9078300000 C         0.0000000000         0.0000000000       -63.6203716590       82.5687285546        7.9349113501
atom        10.9626000000        1.2412000000        3.2573600000 C         0.0000000000         0.0000000000       253.1285022909       -0.4103438992       61.3693339964
atom         4.8850100000        4.8257600000        0.2316600000 C         0.0000000000         0.0000000000      -153.1975785595      171.9900008378       68.0529895026
atom         2.0319400000        0.2533800000        7.2268500000 C         0.0000000000         0.0000000000      -127.4976115522       34.8777562910       67.6579559272
atom         2.9744000000        1.4535200000        0.3729400000 C         0.0000000000         0.0000000000      -106.8856847384      103.8432208901       29.0131053022
atom        11.2382000000       10.4499000000        9.6815800000 C         0.0000000000         0.0000000000       -43.5712611824      185.1393133492      -79.3336158199
atom         9.0367700000        5.4193700000        5.3086800000 C         0.0000000000         0.0000000000        44.8896073569       54.4051734715      -89.0234518691
atom         2.7072900000        8.2493500000       11.0219000000 C         0.0000000000         0.0000000000        25.3376098435     -186.6161976444      168.0610597611
atom         5.4418000000        1.5349500000        7.1899300000 C         0.0000000000         0.0000000000      -125.4784933524      -17.7534336786      132.4250655460
atom         4.7483700000        9.4002300000       12.8827000000 C         0.0000000000         0.0000000000       -54.4136028641     -257.1281553021      103.5350965392
atom         4.1827100000        1.1549000000        4.7103700000 C         0.0000000000         0.0000000000       171.8862063318     -127.0450880091      102.8446095064
atom         0.9438200000        9.0334600000        0.3080800000 C         0.0000000000         0.0000000000       -75.2187287122       14.4751006968     -146.0502377595
atom         4.4106800000        2.7227100000       10.0043000000 C         0.0000000000         0.0000000000      -287.2841630982     -406.8882592732        3.8891692097
atom        11.2836000000        6.0424500000        6.5807400000 C         0.0000000000         0.0000000000        -0.3650985677       78.5938981777       74.3746203760
atom         4.3784000000        4.4622900000        4.2485500000 C         0.0000000000         0.0000000000       -72.9302039856      -95.8883198776      -45.4606316502
atom         1.4149700000        3.3474200000        6.7669300000 C         0.0000000000         0.0000000000       -11.3310796659      -21.3466180916     -272.7935837975
atom         8.3443500000        1.3999200000        5.0382400000 C         0.0000000000         0.0000000000       -57.9338558329      109.1168977807       23.0506767816
atom         6.3274600000        6.1452100000        6.2713800000 C         0.0000000000         0.0000000000       -16.4104972793       94.4411902841       10.0635962352
atom         4.3022400000        5.6744400000        8.4467100000 C         0.0000000000         0.0000000000        59.2996645805       31.6394503898       69.5354634688
atom         9.1360800000        1.0880100000        1.7123000000 C         0.0000000000         0.0000000000        49.6281212182       33.8782305639       53.9652330890
atom         1.8580200000        8.8029600000        1.0896100000 O         0.0000000000         0.0000000000       -69.4345059297     -112.7076003162      -31.0487994480
atom        10.7771000000        0.7794500000        9.0597900000 O         0.0000000000         0.0000000000        72.2790949842     -179.4745386244      102.7597837882
atom         5.9174000000        5.1190300000       12.9386000000 O         0.0000000000         0.0000000000       -95.7613235103      -44.8447341639       46.6645640705
atom         6.6713900000        7.2778000000       12.1759000000 O         0.0000000000         0.0000000000       286.0579651707       -6.6427912408      -44.2592463449
atom         2.6667000000        2.3003000000        1.2713800000 O         0.0000000000         0.0000000000        60.1691062747     -188.0510351524     -225.3852157598
atom         1.8788100000        4.2535700000        2.9965800000 O         0.0000000000         0.0000000000      -112.4206998584      -60.0971737210     -141.8136160104
atom         0.7775800000        2.7480900000       10.5553000000 O         0.0000000000         0.0000000000        34.6534924344      -35.1196273943      -88.7334100844
atom         2.1684300000        4.7744100000       11.4937000000 O         0.0000000000         0.0000000000       -76.0123444894       93.5662298276     -255.8668302219
atom         8.8430300000        0.8696400000        2.8576400000 O         0.0000000000         0.0000000000        90.8097634961       40.6021067948     -259.0618185315
atom         0.3797000000        9.8040500000       10.3801000000 O         0.0000000000         0.0000000000       -26.9940841033       -1.1347370397      -29.5234449569
atom         8.9565400000        2.8745100000        9.5874600000 O         0.0000000000         0.0000000000       -45.2458839544      132.5018945358     -164.1256149215
atom         2.8653700000       10.4264000000        2.1964400000 O         0.0000000000         0.0000000000       -94.6989563732       65.5834163353       42.3687772200
atom         4.0608800000        3.8843000000        5.2920800000 O         0.0000000000         0.0000000000        63.6080524354      116.7417791746     -202.8078750019
atom         4.6606300000       10.3973000000       12.2877000000 O         0.0000000000         0.0000000000        52.1904086518     -123.2381532189       71.7316414566
atom         4.3849200000        6.8122500000        3.8112900000 O         0.0000000000         0.0000000000        44.8602109965      104.6465523092       -0.0526540045
atom         1.9329600000        5.7239700000        9.2652300000 O         0.0000000000         0.0000000000       -34.7504916400     -117.1225429997      229.9051608782
atom        10.9355000000        6.9964600000        5.9846600000 O         0.0000000000         0.0000000000        61.1204994961     -172.2974942514       75.4336149327
atom        10.8607000000        6.1629700000        2.4653300000 O         0.0000000000         0.0000000000       184.2530336979      -38.0856226437      -93.0760678883
atom         0.4779400000        3.2809900000        0.6490500000 O         0.0000000000         0.0000000000       -15.6955387442      -24.5166868417      -53.8859791284
atom         1.7586100000        3.3155900000        7.7820100000 O         0.0000000000         0.0000000000         3.4186901408       -2.9593259833       60.1658640685
atom         2.5370100000       10.4486000000        8.3229700000 O         0.0000000000         0.0000000000       -99.3748457218       57.3009712887     -223.6737437613
atom         1.2875500000        3.3182600000        5.5656800000 O         0.0000000000         0.0000000000         5.1043647193       15.0921464911      214.7502077962
atom         8.8856300000        6.4443100000       12.5174000000 O         0.0000000000         0.0000000000      -177.8058768650      168.5510187662     -115.1778109772
atom        11.3448000000        8.1888000000       13.0870000000 O         0.0000000000         0.0000000000        63.1746844193       31.7654373450       74.9778973956
atom         0.2407500000        5.3647800000        7.4682700000 O         0.0000000000         0.0000000000       -58.9657820862      102.0317283102     -156.6471194473
atom         4.6609400000        9.6539900000        2.7098000000 O         0.0000000000         0.0000000000        -2.0481587393       80.1425029956      -69.4771499266
atom         4.5520100000        1.1001800000        1.8225300000 O         0.0000000000         0.0000000000       -47.6940305294      -13.2896119451       83.2611162972
atom         2.8788700000        0.8633600000       12.4281000000 O         0.0000000000         0.0000000000       -34.1400429281       71.9411843593      169.5409737209
atom         7.2077900000        6.9089100000        6.5491100000 O         0.0000000000         0.0000000000      -157.0766553190     -155.1229340718      -41.8026060578
atom         9.1457800000        3.9954200000        1.2728800000 O         0.0000000000         0.0000000000       -18.1132343552     -104.1034311424     -107.2448334626
atom         8.7352100000        6.0812800000        4.4183400000 O         0.0000000000         0.0000000000        24.3361135104      -94.1335536607      121.8410003073
atom         4.6584200000        3.1093900000       12.7066000000 O         0.0000000000         0.0000000000       -89.4978868751       -3.5917967845     -173.7273241459
atom        10.2984000000        2.9014300000        7.4983600000 O         0.0000000000         0.0000000000        82.0467772200       15.1953774616      -79.2387362943
atom         4.4589300000        4.7016500000        3.0987900000 O         0.0000000000         0.0000000000         1.2106097282      -58.4409253227      224.1270904592
atom        10.0468000000        9.7244800000        4.6458900000 O         0.0000000000         0.0000000000      -102.2048399879      -58.2361313927      231.0418987532
atom         0.8728800000        9.9745400000       12.6625000000 O         0.0000000000         0.0000000000        65.1015333182      -52.8517287898       93.2719922883
atom         1.4144400000        6.2499300000        1.2579700000 O         0.0000000000         0.0000000000      -118.4658384435      -34.4603311871       83.2497859133
atom         5.2672600000        3.3480000000        9.8068300000 O         0.0000000000         0.0000000000        78.7016283793       80.0884457981      -12.5699939030
atom         7.3177500000        8.1133900000        4.4833300000 O         0.0000000000         0.0000000000        34.2687630895        2.0324131249      194.2910750944
atom         8.9035500000        2.4329300000        5.6604900000 O         0.0000000000         0.0000000000      -132.0905921507     -250.2508023388     -155.1991565205
atom         5.7766800000        2.3092600000        3.7829000000 O         0.0000000000         0.0000000000        66.3036466694        9.4984288853      104.6140881033
atom         5.2452300000        5.7632500000        5.9305900000 O         0.0000000000         0.0000000000       190.6868688023       84.3318357352       38.8283760560
atom         7.6344700000        0.6852300000        4.3608600000 O         0.0000000000         0.0000000000       133.2963168945      139.1963826549      190.1099206205
atom         9.6412900000        1.4005400000        0.7164800000 O         0.0000000000         0.0000000000       -95.7458265158      -58.7423393522      144.6502151749
atom        10.4537000000        3.7954100000        3.7087300000 O         0.0000000000         0.0000000000      -102.6917921068      -79.0528512720      117.1258462935
atom         9.6291000000        4.8359800000        6.0749200000 O         0.0000000000         0.0000000000       -68.3323383373       43.4494112426      -47.1547091101
atom        10.8711000000        1.2136100000        4.5744300000 O         0.0000000000         0.0000000000         9.4135686960        5.7783993050     -256.9800391082
atom         7.1222000000        4.2899500000        2.9220200000 O         0.0000000000         0.0000000000        -1.4489613879      -67.1469494683      -99.8444193878
atom         0.1747100000        8.1834400000        7.9192900000 N         0.0000000000         0.0000000000       112.4460055913       30.2831545217       78.2515192920
atom         6.4503400000        2.8148300000        1.2505600000 N         0.0000000000         0.0000000000       143.5323299223      197.8845738392      218.0840386298
atom         7.8457400000        9.3415000000        2.3732800000 N         0.0000000000         0.0000000000      -164.6287511252      151.5032739287     -132.1611644168
atom         3.4435500000        8.8173900000       10.1945000000 N         0.0000000000         0.0000000000      -110.0588929731      -79.8146786997      132.8117367107
atom         6.5563800000        1.6756300000        7.1182800000 N         0.0000000000         0.0000000000       -96.3823700188       56.9580225151       11.0860503503
atom         4.7142200000        8.3271100000        0.2883200000 N         0.0000000000         0.0000000000       -33.5726677459      221.3751418984     -109.1219245859
atom         3.8186900000        5.1563800000        0.6833100000 N         0.0000000000         0.0000000000       205.1985789041      -64.9893562118      -62.8169320733
atom         1.2224700000        0.6540000000        6.5236000000 N         0.0000000000         0.0000000000       119.4121769729      -58.2810725344       85.1241443881
atom         7.1756800000        7.3411200000        2.2900600000 N         0.0000000000         0.0000000000       -25.2967285558      -49.0652804736      -26.1599256112
atom         8.6281700000        5.8945700000        8.4496100000 N         0.0000000000         0.0000000000        58.9099078322      275.3071076428      -26.2845384118
atom         5.6702900000        8.7991400000        6.9972700000 N         0.0000000000         0.0000000000       -61.6142741098       62.7453460116       68.7487024041
atom         7.0197300000        0.1935300000        9.6585300000 N         0.0000000000         0.0000000000        -3.5436973912       36.1912826164      -34.5137826817
atom         1.7207100000        7.0425500000        3.7947600000 N         0.0000000000         0.0000000000        13.5544346766     -114.2459338963      166.9117686429
atom         9.4943400000        9.9040300000       12.7116000000 N         0.0000000000         0.0000000000      -135.8671885936      -50.7748996746       37.1882183067
atom         6.9918500000        1.3507900000       11.9810000000 N         0.0000000000         0.0000000000       215.6311927555      233.0176287951      -61.7212410638
atom         8.1981100000        9.6531900000        7.1054600000 N         0.0000000000         0.0000000000       168.4052193975       43.2728298764      108.7620136857
atom         7.6581100000        9.0872800000       10.3915000000 N         0.0000000000         0.0000000000      -138.7694078169     -181.6096244547      -55.1968089568
atom         8.8295700000        7.0117700000        8.3554300000 N         0.0000000000         0.0000000000       -49.8456350295     -287.7799338114       24.4988578103
atom        10.9586000000        9.1518700000        2.4920800000 N         0.0000000000         0.0000000000      -135.4812441625     -106.6523978442      -66.7704846358
atom         2.3319400000        7.4787800000       11.9153000000 N         0.0000000000         0.0000000000       117.0773456470      283.3934187885     -310.1462668493
atom         4.3008000000        1.3530200000        7.5889900000 N         0.0000000000         0.0000000000       245.3903379978       65.1295730057      -63.6386400518
atom        11.1916000000        7.2024800000       10.8597000000 N         0.0000000000         0.0000000000      -257.1941729331      144.4057578461     -102.7039961157
atom         3.9881000000        4.7268800000        7.6911300000 N         0.0000000000         0.0000000000       105.5096779553      147.3106059805       43.2212447130
atom         3.1621400000        7.6918900000        6.5619900000 N         0.0000000000         0.0000000000       -57.9612843577     -106.7503772157       42.0420117366
atom         1.0757600000        8.3576800000        8.5076300000 N         0.0000000000         0.0000000000      -108.2486837285      -23.9670958996      -72.3524774316
atom         7.1411300000        4.1816300000        7.0961800000 N         0.0000000000         0.0000000000      -120.3172029617       12.3194989715      -41.8572118823
atom         5.1228200000        0.6402800000        5.2648500000 N         0.0000000000         0.0000000000      -356.2898064353      169.0970943112     -193.4384177535
atom         3.1370800000        1.5303600000        4.1310900000 N         0.0000000000         0.0000000000       159.2962660086      -42.8301982133       80.2436089788
atom        11.2254000000        4.8489300000       12.2825000000 N         0.0000000000         0.0000000000      -222.7013517541        1.8643005875     -277.4149445842
atom         6.9585000000        4.3011100000       10.9798000000 N         0.0000000000         0.0000000000        -6.1116738859      -48.7624032466       48.8063053762
atom         5.1141900000        9.3341600000        7.7581500000 N         0.0000000000         0.0000000000        60.5369698552      -57.9179380588      -69.9379908090
atom         7.7762800000        2.1587800000       11.7143000000 N         0.0000000000         0.0000000000      -209.8542491681     -224.1809781127       85.0063550662
atom         6.4112500000        6.8088100000        1.7703600000 N         0.0000000000         0.0000000000        13.5668594069       24.6241215656       27.0032002723
atom        10.4987000000        4.8400200000       11.3624000000 N         0.0000000000         0.0000000000       215.8264675364       -7.4952529602      278.6802121567
atom         4.6998200000        6.4270400000        9.1867400000 N         0.0000000000         0.0000000000      -105.6789233571     -196.1279686431     -203.8021479344
atom         6.1629500000        0.7444500000        9.9373700000 N         0.0000000000         0.0000000000        -9.9388215150        3.6159710212       -1.1326237103
atom         1.7790700000        6.4096500000        4.7020700000 N         0.0000000000         0.0000000000       -19.8118927671      110.6419973331     -179.9708103634
atom         8.4747400000        9.6001700000       12.9683000000 N         0.0000000000         0.0000000000       145.2720534417       32.3120275774      -53.0231772975
atom         7.0220700000        5.0589000000       10.2684000000 N         0.0000000000         0.0000000000        14.4845481630       54.1940490433      -50.3029507474
atom         9.0742900000        9.8696600000        7.7541900000 N         0.0000000000         0.0000000000      -165.2466800155      -45.8141606155     -126.9419798431
atom         6.9127500000        8.3220900000       10.0541000000 N         0.0000000000         0.0000000000       147.1938549968      147.8930552548       61.4063136498
atom        10.2439000000        7.7361000000       10.4907000000 N         0.0000000000         0.0000000000       255.8019521669     -141.4510131034      103.5065141559
atom        10.1561000000        8.5181500000        2.0768000000 N         0.0000000000         0.0000000000       138.7904131722      106.4917945289       63.0140162911
atom         3.6722600000        1.6921100000       10.0395000000 N         0.0000000000         0.0000000000       195.0430203132      320.5321705644      -25.0487688992
atom         0.3210200000        1.2263800000        2.3204700000 N         0.0000000000         0.0000000000      -223.1354238449       97.7110957244      217.5812319000
atom         7.1166400000        9.9454700000        1.7562600000 N         0.0000000000         0.0000000000       153.5661351776     -127.7593288133      141.9733313066
atom         2.3473100000        9.4981400000        4.9454300000 N         0.0000000000         0.0000000000       -82.6103846431      -38.6454798263       19.8249334837
atom         2.6000000000        6.8251900000        6.9056600000 N         0.0000000000         0.0000000000        68.1501626278      104.4168602035      -38.7870121601
energy    -32465.5624710715
charge 0
end
begin
comment generated by PY
lattice        11.4200000000         0.0000000000         0.0000000000
lattice         0.0000000000        10.5800000000         0.0000000000
lattice         0.0000000000         0.0000000000        13.1400000000
atom         4.3728200000        9.4322200000       10.3720000000 H         0.0000000000         0.0000000000       -31.4804085010      -73.9142912886       22.1565726529
atom         3.9138600000        1.4115300000        1.8980000000 H         0.0000000000         0.0000000000       -20.5638502012      -55.6477840623       67.3539738977
atom        11.1733000000        4.4233600000        1.0460800000 H         0.0000000000         0.0000000000        99.3298278044      -95.5240273818      -24.2892334766
atom         1.3396300000        7.3649100000       11.1667000000 H         0.0000000000         0.0000000000        73.1007612850      -46.3260147113       -0.4723272247