begin
comment generated by PY
lattice        11.4200000000         0.0000000000         0.0000000000
lattice         0.0000000000        10.5800000000         0.0000000000
lattice         0.0000000000         0.0000000000        13.1400000000
atom         1.5227600000        3.5932600000        9.1838900000 H         0.0000000000         0.0000000000        -4.2444832045      -20.4559026317      -14.9009060609
atom         4.9063100000        8.2672100000       10.4345000000 H         0.0000000000         0.0000000000         5.1015003167        7.8293535208        3.5546471468
atom         4.0731400000        5.3977200000        5.6932800000 H         0.0000000000         0.0000000000        36.7412079072      151.5468342606      -22.7353235721
atom         4.5223800000        6.8801100000        6.0874700000 H         0.0000000000         0.0000000000       -22.3963442440      -50.3658698335      -27.7191700174
atom         6.7652200000        8.5673200000        5.1870400000 H         0.0000000000         0.0000000000        78.5704802374       23.5947251751      -62.5938975207
atom        11.4103000000        0.6885700000        7.4247100000 H         0.0000000000         0.0000000000       -33.7574851569       10.0755020641       -5.9425592176
atom         4.1007500000        2.3385000000        9.6147500000 H         0.0000000000         0.0000000000         0.5354363521        3.0144946113       56.6421611739
atom         3.4760100000       10.4748000000        8.9573100000 H         0.0000000000         0.0000000000         8.0309369916      -63.5183511582      -53.3466508202
atom        10.6927000000        6.9703500000        8.1596600000 H         0.0000000000         0.0000000000        10.9233237995       -9.6007888200      -32.3904894465
atom         2.1939600000        8.2206200000        7.6483500000 H         0.0000000000         0.0000000000        25.4657444206       30.1639058646      143.8463008324
atom        11.1622000000        0.8980500000        9.8503900000 H         0.0000000000         0.0000000000       -24.2519439869       35.7755377739       44.8551697660
atom         2.8733700000        0.1468000000        5.0262200000 H         0.0000000000         0.0000000000       -75.5757956954     -143.2386428926      -41.1658403387
atom         7.1588300000        6.8752800000        7.2755100000 H         0.0000000000         0.0000000000       -44.2983592282        4.0557243599      -92.9442924569
atom         4.3091100000        0.0757700000        6.4262600000 H         0.0000000000         0.0000000000       -14.1566763174     -104.2412591465       85.4714568907
atom         8.3775900000        5.7862200000        5.5936100000 H         0.0000000000         0.0000000000       -86.1269680810      -83.0044132838      -73.2421892531
atom         2.2418200000        6.4300400000        5.1698300000 H         0.0000000000         0.0000000000       -43.1550005689       34.1603571785      -39.8690013882
atom         8.2684400000        8.7219900000        4.0810500000 H         0.0000000000         0.0000000000       -73.9447017040       -7.1074436212       -1.1468381989
atom         8.2057000000        8.1285600000       12.3415000000 H         0.0000000000         0.0000000000       -24.9862180453       -6.2910434146        0.2848783893
atom        10.6969000000        7.6842900000       12.8829000000 H         0.0000000000         0.0000000000        -9.6756584999       10.5086700995      -51.3674479457
atom         3.3153000000        7.9036500000       11.7809000000 H         0.0000000000         0.0000000000       -56.7608874466      -11.1329772534      -69.4119950597
atom        10.1450000000        9.2911600000       12.1012000000 H         0.0000000000         0.0000000000        19.7421144832      -99.1775054331      103.0089847260
atom         3.2436400000        9.2656700000        4.8578300000 H         0.0000000000         0.0000000000      -113.5194540323       80.3864425810      -11.6734233565
atom         2.6743200000        9.1598200000        2.2783500000 H         0.0000000000         0.0000000000       -22.0038230962      -41.3498352717      -51.7264773011
atom         0.8964300000        2.4345000000        8.3379600000 H         0.0000000000         0.0000000000       -26.4857149046      145.5563143467       94.1923674222
atom         2.2868300000        3.6960900000        2.6525100000 H         0.0000000000         0.0000000000       -28.1208705948       86.5696019588       57.6326958155
atom         5.5909500000       10.2580000000        9.3611500000 H         0.0000000000         0.0000000000       103.4719150784      -15.3103800704       38.0465051489
atom         4.6463800000        4.0792100000        7.2440400000 H         0.0000000000         0.0000000000        95.5800812167       36.4539073389       53.9512707971
atom         9.6463800000        0.7920700000        2.1649700000 H         0.0000000000         0.0000000000        35.1217367695      -42.6215556462       32.7816952098
atom         8.3210900000        8.7148900000        5.5757600000 H         0.0000000000         0.0000000000        38.0336657507      -50.4081056476      -10.5727357967
atom         4.2405300000        3.4875000000       12.5801000000 H         0.0000000000         0.0000000000       115.8651429833       55.8063889839      -59.4608812888
atom         1.8354000000        4.8476000000        6.3412700000 H         0.0000000000         0.0000000000       -33.7733560607       87.0564356853       79.4066936393
atom         6.7888100000        4.7925600000        4.5208100000 H         0.0000000000         0.0000000000       111.6233297372       37.0629022957       33.6548760238
atom         3.0139500000        4.0770100000        4.2139300000 H         0.0000000000         0.0000000000       -40.3683008405       15.5472456681     -101.1460350563
atom         0.1546000000        7.9049800000        1.8027400000 H         0.0000000000         0.0000000000       -83.3825197809       61.1502912917      -88.4709275014
atom         8.4997500000        9.7970900000        6.4545500000 H         0.0000000000         0.0000000000        19.2455231305       92.1198762349       -3.4498920617
atom         3.5424900000        2.5843900000       11.3895000000 H         0.0000000000         0.0000000000        26.9590858353       -7.9244096327      -98.9701434516
atom         6.7301000000        7.1223700000        5.6560200000 H         0.0000000000         0.0000000000         1.0928637753      -63.5279644760      157.2556557610
atom         8.6893700000        6.4419100000        1.3329000000 H         0.0000000000         0.0000000000        95.3424481880       33.2863585838      -75.1239349460
atom         8.7186000000        6.2134400000        0.0831000000 H         0.0000000000         0.0000000000        81.5607277562       52.5205838348       48.0968260827
atom         4.8835500000        3.1094700000        1.6852900000 H         0.0000000000         0.0000000000      -122.2942045120      -35.8846999545      -27.5922922401
atom         1.6971500000        7.1264900000        0.2931400000 H         0.0000000000         0.0000000000       -33.7355264081      -52.7447188516       52.0763641492
atom         0.4113200000        9.3292300000        0.9076800000 H         0.0000000000         0.0000000000      -111.9665414261      -56.2126875488       34.3450641399
atom         9.7828100000        7.9369500000        3.3964600000 H         0.0000000000         0.0000000000       -47.0680846158       22.1603758849      -54.6197946949
atom         8.0387200000        9.0477100000        0.4839000000 H         0.0000000000         0.0000000000       -52.9556902398       94.9782179892       68.1357319175
atom         8.7101400000        9.9718800000        1.5539300000 H         0.0000000000         0.0000000000      -110.6427304608       -6.7631465639      -54.3995013110
atom         1.6586300000        9.3580700000        9.2911400000 H         0.0000000000         0.0000000000        86.8726957458      -90.2962714860      -61.0204506349
atom         3.7124800000        9.9844000000        2.8733800000 H         0.0000000000         0.0000000000        95.8998423565       30.2395888404       44.1563146674
atom         3.2326700000        2.2181900000       12.9123000000 H         0.0000000000         0.0000000000       -64.5207231050     -135.1375814722       47.0952159910
atom         1.5911900000        0.3434000000       11.2068000000 C         0.0000000000         0.0000000000       -98.1576978698      -47.1455490613      -59.3396155060
atom         9.9964500000        9.4004000000        2.2222600000 C         0.0000000000         0.0000000000       -18.3752746821       52.4252350827       60.7417135828
atom         2.2404800000        7.8374700000        2.8542600000 C         0.0000000000         0.0000000000        53.0719308092       -7.8481393338       20.6536199853
atom        10.4825000000        0.9063300000       11.6601000000 C         0.0000000000         0.0000000000        44.5144987746      210.2216281697      -44.7787692262
atom         4.0649400000        9.6930900000        7.0787800000 C         0.0000000000         0.0000000000      -145.8050742173      -40.9976445714      157.0435034378
atom         2.5037600000        2.1594300000        7.4173000000 C         0.0000000000         0.0000000000        28.9802058977      145.7919307418      -59.2086919473
atom         1.2835300000        6.4598200000        4.8392300000 C         0.0000000000         0.0000000000        86.8998768601       59.2869037869       86.7361078891
atom         7.4683600000        4.0203300000       11.6759000000 C         0.0000000000         0.0000000000       167.6284299914      145.7725119973      109.8036849066
atom         9.7250500000        0.7306300000        6.7344900000 C         0.0000000000         0.0000000000         9.4499300071      -83.5070086362      -77.4638556168
atom         1.5874100000        5.4069500000        0.2243100000 C         0.0000000000         0.0000000000       -68.9096179949      279.0216738181      170.1287673017
atom         2.5509800000        7.6429200000       11.1123000000 C         0.0000000000         0.0000000000       -48.6756987197      -80.6036787652       87.2152280752
atom         3.0411000000        1.9125500000        1.5942400000 C         0.0000000000         0.0000000000        -1.6584285008      -84.6960190017     -126.4097919680
atom        10.7960000000        8.7866000000        8.7622100000 C         0.0000000000         0.0000000000       111.3050800830      -13.7548891609      -60.1203544143
atom         1.5791800000        5.6859400000        7.0647400000 C         0.0000000000         0.0000000000        -1.3858615645       73.1008019296      -93.7749176879
atom         5.3992700000        5.4682900000        8.3096100000 C         0.0000000000         0.0000000000        54.4305490495      -67.2786400278      -61.3836265557
atom         2.3321000000        4.3706900000        3.4462000000 C         0.0000000000         0.0000000000        -6.9933081542       -3.6465453905      190.2896715348
atom        10.8533000000        8.7513600000        1.1701500000 C         0.0000000000         0.0000000000        42.2407813291       41.6236389244      -45.7850958984
atom         0.1995000000        9.4779500000        4.2633600000 C         0.0000000000         0.0000000000        25.4028596242       85.7160212888       69.4961467167
atom         5.2740500000        2.7521000000       11.2778000000 C         0.0000000000         0.0000000000       -44.8910954222       -9.5983468474      -76.3235617131
atom         6.2348100000        8.0887400000       11.9934000000 C         0.0000000000         0.0000000000        47.2941411276       15.3162085678      -82.9841767038
atom         2.4946200000        8.6453300000        8.8181400000 C         0.0000000000         0.0000000000        35.6643752764      133.1994905169      -93.3544196437
atom         4.8234400000       10.3303000000        3.3632600000 C         0.0000000000         0.0000000000        62.8584185627      -47.3781217489       10.9527112504
atom         6.5111000000        9.2784600000        8.3103500000 C         0.0000000000         0.0000000000       204.2791469909       11.7938084905       -1.1663858417
atom         8.3769200000        3.2739900000        9.7849900000 C         0.0000000000         0.0000000000        49.9192260440      174.9749004596      -62.5649401428
atom         5.1712600000        3.7625400000        3.6265000000 O         0.0000000000         0.0000000000        56.0369254773     -158.3951862890      189.1862032201
atom         5.1394500000        3.8143200000       12.1272000000 O         0.0000000000         0.0000000000      -148.8423966654     -172.6926070432       -1.0089879559
atom         5.5697400000        0.4715500000        2.7017200000 O         0.0000000000         0.0000000000       -98.8767452240      -75.9711809092       91.0853267880
atom         7.7905200000        5.8294000000        8.9305500000 O         0.0000000000         0.0000000000        97.3005889537      157.9566940241      134.8062175440
atom        10.0436000000        5.5736000000        7.0416600000 O         0.0000000000         0.0000000000       168.0041967076     -225.5208521869      -72.4048538277
atom         0.7417900000        3.3223900000        8.8815300000 O         0.0000000000         0.0000000000         4.7088153797     -130.2700937353      -70.1722442449
atom         6.9177100000        1.5556400000        5.0422900000 O         0.0000000000         0.0000000000       256.6158053799       93.8670989374     -239.4299538497
atom         1.5264800000        7.1590200000       11.7101000000 O         0.0000000000         0.0000000000       182.6938353556      104.8026565642     -141.4946793127
atom         5.1323800000        9.6885400000        4.4254700000 O         0.0000000000         0.0000000000       -61.7792609302       92.2031918934     -138.2801016367
atom         7.2774700000        8.8774400000        4.4404300000 O         0.0000000000         0.0000000000        28.2448006065      -21.3512671691       59.6529682996
atom         8.3850700000        3.5042400000        6.3923800000 O         0.0000000000         0.0000000000       -30.0251483920       42.0866988957     -306.2401668445
atom         4.2226300000        6.3545300000        5.4073900000 O         0.0000000000         0.0000000000       -19.8055111195     -117.1778414084       53.6826159155
atom        11.2253000000        8.6605800000        5.0313300000 O         0.0000000000         0.0000000000        57.0127615531      155.9115160679     -135.6587412984
atom         7.8025000000        9.8968600000        1.1238800000 O         0.0000000000         0.0000000000       151.6366262725      -83.8111340188      -22.8353017600
atom         8.0693000000        1.4563100000        3.0723400000 O         0.0000000000         0.0000000000       -60.5709416355      125.9116890778      294.6966029940
atom         7.9217700000        1.7491100000        0.8214500000 O         0.0000000000         0.0000000000      -168.0324898841      348.7335482060      -61.9112806313
atom         3.8440900000        4.9006700000        1.1454600000 O         0.0000000000         0.0000000000        74.6145675593      296.0173393449      -18.4454219928
atom         5.1265300000        0.8415100000        0.4873500000 O         0.0000000000         0.0000000000       141.9486230006     -150.5828051331     -225.8385773976
atom         3.2712800000        7.6315400000        3.5524600000 O         0.0000000000         0.0000000000      -132.5301762698       20.7190288786     -105.0973264820
atom        10.1291000000        0.9510600000       12.8925000000 O         0.0000000000         0.0000000000        66.9332839287       -3.0081615070     -227.3707728716
atom         9.4049700000        6.6063200000        0.6607500000 O         0.0000000000         0.0000000000      -205.5980234629     -103.1103852099       31.3218276376
atom         1.0440900000        7.3828300000        3.5926100000 O         0.0000000000         0.0000000000        86.9866540191      -56.1400545342       42.9158869684
atom         4.0664400000        2.7539700000        5.0497000000 O         0.0000000000         0.0000000000       253.8558430989       24.6975770706      -67.2772612407
atom         6.1118500000        4.8048300000        1.6833400000 O         0.0000000000         0.0000000000       311.3334885712      235.7923107279      153.4390622433
atom         4.1976000000        6.6959700000       13.0484000000 O         0.0000000000         0.0000000000         5.3242942410     -135.9690867082      287.1928178684
atom         5.3085700000       10.5673000000       11.6472000000 O         0.0000000000         0.0000000000        83.3581711208       49.7723000734      250.0662180581
atom         9.3930600000        3.8527600000        2.4377000000 O         0.0000000000         0.0000000000       139.2292028783      192.9269750134      -34.4415810563
atom         2.1032200000        1.2621200000        6.8668800000 O         0.0000000000         0.0000000000        33.0308522883       60.6172106360       65.6360322896
atom        11.0092000000        3.4796900000        0.2386100000 O         0.0000000000         0.0000000000      -147.8934149011     -329.4433425587      199.5485866919
atom         5.5203000000        6.5170700000        8.8606900000 O         0.0000000000         0.0000000000       -31.5212388580     -183.9605288220      -85.8736562454
atom         2.3718200000        9.8318700000        4.7861000000 O         0.0000000000         0.0000000000       219.1544506433       52.3233141020       60.1321076257
atom         2.9057500000        7.5301900000        9.8653300000 O         0.0000000000         0.0000000000       -67.0186337447      105.7275756523        5.5837740719
atom         8.9061200000       10.1605000000        9.3919000000 O         0.0000000000         0.0000000000      -118.2627288335      107.5725415852      309.5386682074
atom         9.6381900000        7.1559200000        5.3421900000 O         0.0000000000         0.0000000000      -148.3761591112      257.9468861221      155.1195606660
atom         1.1241900000        2.1552100000        4.3368800000 O         0.0000000000         0.0000000000      -215.3896733715       13.0582181292       64.8453438001
atom         1.9044200000        5.7054200000        8.1954200000 O         0.0000000000         0.0000000000       -54.3084999498       10.0274636411     -119.5691228241
atom         3.8581100000        8.6099900000        6.7140200000 O         0.0000000000         0.0000000000        54.0051017391       52.2416150589      -49.5136765512
atom         0.6254500000       10.4904000000        3.7715300000 O         0.0000000000         0.0000000000      -104.4540906760     -211.9368698016       82.4544509771
atom         6.3760900000        2.2779500000       11.1952000000 O         0.0000000000         0.0000000000      -139.6779478909       44.3638152424        9.1585474332
atom         2.7413100000        1.3180800000        0.2381000000 O         0.0000000000         0.0000000000       105.8235040642      219.7650152080       23.5301349662
atom         0.7381800000       10.1220000000       11.6054000000 O         0.0000000000         0.0000000000       207.0393324888      162.7352763652      -62.7263570598
atom         2.3946400000        1.3082200000        2.3416100000 O         0.0000000000         0.0000000000        93.4685734486      105.6193044770      -23.0438280930
atom         1.4925800000        5.0574900000        4.3751900000 O         0.0000000000         0.0000000000        27.0531741267       -7.6131746456     -106.5575857006
atom         6.6168300000        6.5995400000        6.5537800000 O         0.0000000000         0.0000000000        54.9349486344       65.2653938108      -82.1878017453
atom         3.9932200000        2.8897100000        1.2377200000 O         0.0000000000         0.0000000000        -9.3105589284      -97.0556268823       90.3702372723
atom         1.7106500000        4.6055200000       12.6166000000 O         0.0000000000         0.0000000000         2.2688979022        2.5585044391       22.7108018743
atom         2.1978300000        1.0826000000       10.5154000000 O         0.0000000000         0.0000000000      -101.6083000859     -131.2922180621      132.8762232219
atom         2.8686400000        3.2764200000        7.6399900000 O         0.0000000000         0.0000000000       -40.0491304749     -205.2503738558      -23.2832776651
atom        10.7965000000        1.1080300000        6.7892800000 N         0.0000000000         0.0000000000      -159.7869740377      -67.4223043727       30.8497046435
atom         9.1498700000        8.4938000000        2.8169100000 N         0.0000000000         0.0000000000       200.2110464597      160.5714971783      -19.1402173109
atom         2.1755100000        8.3757100000        1.7881200000 N         0.0000000000         0.0000000000        29.8459606452       -2.4637357326      225.9090416359
atom        10.8572000000        1.4801100000       10.6484000000 N         0.0000000000         0.0000000000       -95.9574097529     -220.1108703902      217.9513862108
atom        11.3561000000        9.8733100000        8.6030200000 N         0.0000000000         0.0000000000      -172.9469609115     -309.4530121127       80.6468620943
atom         0.9866800000        6.8406300000        6.2692300000 N         0.0000000000         0.0000000000       105.9004212029     -236.0702515806     -106.3700497036
atom         5.5276600000        4.4557400000        7.7194800000 N         0.0000000000         0.0000000000      -133.3250792717      211.2052397836       96.9580868483
atom         7.2622100000        4.9551500000       12.4302000000 N         0.0000000000         0.0000000000        63.3601051608     -306.8226204736     -246.0663942831
atom        10.1668000000        8.4921300000       12.9167000000 N         0.0000000000         0.0000000000        77.5062884623       82.1570699535      140.2726868209
atom        10.3142000000        0.0991200000        2.4581900000 N         0.0000000000         0.0000000000      -139.4101533494     -248.0600593685     -101.1297134561
atom         4.1871700000        2.3945700000       10.5999000000 N         0.0000000000         0.0000000000       158.5474209673       78.0086799875      199.2559240054
atom         5.3013000000        8.0572600000       11.2652000000 N         0.0000000000         0.0000000000       268.4326603286       -6.0093777172      234.8477304715
atom         3.4996800000        9.6544600000        8.3460600000 N         0.0000000000         0.0000000000       -27.7191305118       -8.3974607261      -30.8819547207
atom         3.4558900000        5.6623000000       10.5297000000 N         0.0000000000         0.0000000000        51.2476363790     -180.9476188621     -130.1526306053
atom         6.9125600000        8.7689800000        7.3583200000 N         0.0000000000         0.0000000000      -110.6350651469      143.8458206939      238.1974012295
atom         8.3230000000        3.2268300000       11.0344000000 N         0.0000000000         0.0000000000      -162.8953999005      167.9406579767     -117.8492831958
atom         8.7298100000        0.2419300000        6.4301500000 N         0.0000000000         0.0000000000       165.2529609735       15.7416178572       75.4652834678
atom         1.3550400000        6.3961900000        0.9612400000 N         0.0000000000         0.0000000000        90.7850302888     -239.3607521421     -247.4526484043
atom        10.3560000000        2.2996100000        4.7913800000 N         0.0000000000         0.0000000000       130.5703688709      -20.5471436822      -47.7402543773
atom         7.2898100000        8.1462400000       12.6646000000 N         0.0000000000         0.0000000000      -259.6465820270      -14.0572341513     -167.0715204075
atom        10.4400000000        7.5356000000        8.8521600000 N         0.0000000000         0.0000000000        78.4503024378      362.0455149361       10.2329768353
atom        11.0016000000        5.3929400000        2.4672200000 N         0.0000000000         0.0000000000       -47.0433942041      -10.9890931480      -12.8852045825
atom         6.6273300000        9.9813100000        9.4900000000 N         0.0000000000         0.0000000000      -186.3912274518     -122.1792573287     -256.0326593310
atom         8.5577600000        3.7513400000        8.7171100000 N         0.0000000000         0.0000000000       -51.7350554555     -175.8830920535      323.5365048178
atom         6.4200100000        1.3885100000        7.3854100000 N         0.0000000000         0.0000000000         9.4070785442       -9.0009560083      -20.2477399582
atom         5.5349500000        8.6909500000        1.4018500000 N         0.0000000000         0.0000000000       218.5579036281     -171.0296648302       98.2044396002
atom         8.1579700000        3.7190300000        5.2319700000 N         0.0000000000         0.0000000000       -12.0099738947      102.2746531825      258.5239697751
atom         8.1878900000        6.6236000000        9.6301500000 N         0.0000000000         0.0000000000       -33.9411043649       51.0367227625       15.5958526982
atom        10.7036000000        4.6324900000        6.7305200000 N         0.0000000000         0.0000000000      -147.6984615163       24.7194081932       27.3530182571
atom        10.4265000000        5.7119300000       10.5133000000 N         0.0000000000         0.0000000000       200.5278179185      100.0889934273      225.0119224468
atom         7.8314300000        1.9138300000        4.2072500000 N         0.0000000000         0.0000000000      -200.6882759601     -210.8752876328      -51.4462343099
atom         7.3808100000        2.7660800000        0.6496600000 N         0.0000000000         0.0000000000       161.4249861957     -341.1818845575       57.6823242325
atom         4.2283300000        6.1707700000        1.0310500000 N         0.0000000000         0.0000000000       -88.0533843130     -132.6283510026     -255.3098763886
atom         5.6645100000        0.2083300000       12.7453000000 N         0.0000000000         0.0000000000      -219.1490184008      104.8154677848      -29.6589070126
atom        10.1421000000        4.7427400000        2.3617400000 N         0.0000000000         0.0000000000      -102.2272764145     -183.7387729965       46.0635394141
atom         8.5102800000        7.4990500000       10.3129000000 N         0.0000000000         0.0000000000       -72.6538574253     -192.2072410353     -138.6055804691
atom        10.5669000000        2.4865500000        0.8611800000 N         0.0000000000         0.0000000000       130.6923040185      299.8524889282     -206.9254264240
atom         7.8296800000        4.9849800000        4.8940100000 N         0.0000000000         0.0000000000        14.0052948791     -110.2616475613       54.9136098603
atom         5.2435000000        2.9679700000        4.6145900000 N         0.0000000000         0.0000000000      -306.5886424311      139.0792926600     -112.4320633267
atom         6.9888700000        5.4852700000        2.1478600000 N         0.0000000000         0.0000000000      -293.6482278846     -229.9399698685     -159.1404932914
atom         8.4063900000       10.5044000000       10.3684000000 N         0.0000000000         0.0000000000       114.9376283311     -124.6764403613     -342.2786251362
atom         9.1709300000        8.1450200000        5.9722500000 N         0.0000000000         0.0000000000        74.0512666249     -211.2201962268     -156.4454038054
atom         0.0179900000        2.2014700000        4.5757600000 N         0.0000000000         0.0000000000        77.3857420055        2.6038741708      -48.5667915140
atom        10.9778000000        3.5649500000        6.4237500000 N         0.0000000000         0.0000000000        -9.8323822953      217.2028885758       73.2372634889
atom         3.6824000000        4.8353100000        9.8115700000 N         0.0000000000         0.0000000000       -51.5541563688      168.1001749545      143.1388375040
atom         6.4048800000        8.0325400000        1.7433900000 N         0.0000000000         0.0000000000      -228.2177172678      173.3323821216      -84.6737577553
atom         5.8835900000        1.6461700000        8.2515900000 N         0.0000000000         0.0000000000       -24.7835198679        9.4083956056       27.1828284442
atom        11.1329000000        6.0835800000       11.3524000000 N         0.0000000000         0.0000000000      -217.9490066836     -116.2601609988     -211.3098952505
energy    -32373.5519122125
charge 0
end
begin
comment generated by PY
lattice        11.4200000000         0.0000000000         0.0000000000
lattice         0.0000000000        10.5800000000         0.0000000000
lattice         0.0000000000         0.0000000000        13.1400000000
atom         5.6183100000        7.5747500000       13.0330000000 H         0.0000000000         0.0000000000       119.7298620046      102.4500664661      -86.3443841586
atom         6.0745000000        5.4176800000        0.9636600000 H         0.0000000000         0.0000000000         8.6793415253       40.2438932857       50.1241768442
atom         8.2923600000        1.9113500000        2.8647100000 H         0.0000000000         0.0000000000        -8.0715140187      -84.2429994855       54.7993576102
atom         4.3973100000        3.3099600000        4.4242600000 H         0.0000000000         0.0000000000       123.2739613198       80.1000212965      -19.4032122951