begin
comment generated by PY
lattice        11.4200000000         0.0000000000         0.0000000000
lattice         0.0000000000        10.5800000000         0.0000000000
lattice         0.0000000000         0.0000000000        13.1400000000
atom         9.2722600000        5.0602900000       10.5989000000 H         0.0000000000         0.0000000000       129.9431750651      -14.5987049425       11.2679134098
atom         3.0982300000        0.9787800000        9.7816800000 H         0.0000000000         0.0000000000        -4.5184729815       32.6988611457       47.2094210304
atom         1.5598000000       10.5225000000        5.7467100000 H         0.0000000000         0.0000000000       -78.7727174787      -30.0365560677      -70.5968607604
atom         0.9037100000        8.1868300000       12.8446000000 H         0.0000000000         0.0000000000        80.4538522712       82.2084729391        9.2394977225
atom         4.0647300000        8.5918200000        6.9771300000 H         0.0000000000         0.0000000000       -36.0427986502       58.4297906738        3.9945526499
atom         1.2962400000        4.3897900000        8.8144900000 H         0.0000000000         0.0000000000        25.2477699869      -76.9746750555       18.7738687260
atom         4.5395900000        5.2892600000       12.4422000000 H         0.0000000000         0.0000000000       129.2285277562       42.8510242507      -15.1749187216
atom        10.6351000000        1.3876800000        9.3583100000 H         0.0000000000         0.0000000000       -38.3037719504       82.1494715751       28.7767898115
atom         1.8517300000        7.2205700000        4.1880900000 H         0.0000000000         0.0000000000       -14.3196210159       33.1153035369      125.6056871578
atom         6.6900700000        8.7331400000       12.8215000000 H         0.0000000000         0.0000000000         2.0319248284       25.5989250190      -20.8034176033
atom         3.6101500000        0.5775200000       12.1937000000 H         0.0000000000         0.0000000000       -92.3832225817      -42.2966102341      -21.1527887422
atom         8.9246400000        1.0836900000        6.2572700000 H         0.0000000000         0.0000000000        11.9733526821       30.9992297107      -30.6914674186
atom         7.0640100000        0.9883200000       12.7419000000 H         0.0000000000         0.0000000000       -42.8785024960      -87.1807646886      -15.3570812956
atom         6.2952100000        3.8481200000        9.4940900000 H         0.0000000000         0.0000000000       -27.1152215634      -61.8419199044       64.6892701219
atom         5.2246300000        5.0083100000        2.3084300000 H         0.0000000000         0.0000000000        24.9193773081      -19.0350324608        0.4154071996
atom        10.7002000000        5.2987500000       11.2652000000 H         0.0000000000         0.0000000000       -65.6325774450      -54.7549709488      -78.2766061310
atom         3.9713200000        3.1461900000        7.4663500000 H         0.0000000000         0.0000000000       -25.8393299923     -148.0694242561      -29.1182837331
atom         9.5127800000        8.6450100000        5.4218300000 H         0.0000000000         0.0000000000        30.3327458462       -4.9119598348      -43.1285713140
atom         9.3185200000        8.5350500000        9.8506900000 H         0.0000000000         0.0000000000        28.2697744476     -101.8888263853      -53.1074041662
atom         9.6566000000        7.9000800000        3.9472800000 H         0.0000000000         0.0000000000        31.0703191047       32.8212791003       44.8151516889
atom         5.6707700000        6.2767800000       12.8028000000 H         0.0000000000         0.0000000000       -29.8841730685      -65.2317603629      -29.5183595294
atom         8.5729900000        0.1637300000        8.5311900000 H         0.0000000000         0.0000000000       -97.0714356107       69.1653803602      -59.0534019222
atom         9.4510900000        2.0835500000        1.5007600000 H         0.0000000000         0.0000000000       -45.9233217363      -77.1645430316        9.6116482004
atom         8.8199700000        2.1772000000        5.0138300000 H         0.0000000000         0.0000000000        22.7561423266      -23.2496213120       34.5490273367
atom         9.8003000000        0.5128700000        2.7560200000 H         0.0000000000         0.0000000000         5.2060147476      -10.2327838394       58.1979803812
atom        11.0701000000        8.2595400000        4.7930000000 H         0.0000000000         0.0000000000       -65.1711531236       -4.9706642674      -11.4347865623
atom         7.0894700000        0.6726300000        8.4953500000 H         0.0000000000         0.0000000000        90.1454751559       -2.2101312095      -34.8081218046
atom         9.2850800000        7.0209600000        8.8400400000 H         0.0000000000         0.0000000000        51.0060275673      104.8498153568       85.4714140903
atom        10.2251000000        1.9841700000        5.8681300000 H         0.0000000000         0.0000000000       -62.0440551935      -13.9694934643      -12.6264185534
atom         7.9944700000        1.3425800000        1.8571300000 H         0.0000000000         0.0000000000        82.1014412034      -11.0180298543      -18.0178302292
atom         2.1575900000        9.5306000000        2.5954600000 H         0.0000000000         0.0000000000       -71.5544129767       -4.2460643914       18.1282168293
atom         2.2013500000        9.7732900000       12.6811000000 H         0.0000000000         0.0000000000       -63.8148570105     -105.2103654279       36.1540993061
atom         7.9764900000        9.6769800000       11.1327000000 H         0.0000000000         0.0000000000        78.1947695425       -8.6794431957      -76.9275598743
atom        10.2822000000        2.6652900000       10.5920000000 H         0.0000000000         0.0000000000         4.4536126939      -32.3035964101      -73.8421474334
atom         2.0738500000        7.2652600000        5.8793100000 H         0.0000000000         0.0000000000       -49.3629709853       23.5192834635     -120.1417118743
atom         3.4278400000        3.6519000000        2.7394300000 H         0.0000000000         0.0000000000        90.7275022469      114.9866522385      -37.0643175344
atom        10.2134000000        9.6784100000        3.9996600000 H         0.0000000000         0.0000000000       -31.7286479511        4.3666309673        6.2740595329
atom         6.0052900000        3.3741600000       11.1975000000 H         0.0000000000         0.0000000000        -0.4280824103      -10.2097451548      -93.8963745931
atom         9.9703900000        0.7434200000        4.4464700000 H         0.0000000000         0.0000000000       -16.6987055384      -26.2455130793      -36.0713465565
atom         3.4848600000        1.6823200000        6.5512400000 H         0.0000000000         0.0000000000        62.4541390506       82.8367849108      117.8777971876
atom         8.8835300000        0.1165500000       10.5085000000 H         0.0000000000         0.0000000000       -34.4197178242     -143.6719985175      -30.2640398842
atom         9.1019700000        0.5738200000        0.8640000000 H         0.0000000000         0.0000000000       -14.4242926502       58.5752385325       63.1114895880
atom         2.4795500000        9.5860000000        9.9745000000 H         0.0000000000         0.0000000000        56.9765689221       32.6172865697      -43.9578820007
atom         2.0893000000        2.9606900000        9.4341900000 H         0.0000000000         0.0000000000       -67.7725519924       81.0514178797      -77.5821043574
atom         0.5380500000        8.6119000000       10.0549000000 H         0.0000000000         0.0000000000        88.3943765512      -73.8950478565       -4.5455985732
atom         7.3275500000        5.4945800000        2.0619300000 H         0.0000000000         0.0000000000      -118.0022191026       -9.7078352251       18.2825379651
atom         6.5970700000        8.1048300000        8.8865000000 H         0.0000000000         0.0000000000        12.9219665686       37.1850674630      -35.5551112680
atom         1.4593600000        3.0935600000       13.1292000000 H         0.0000000000         0.0000000000       -26.3175414310       30.5592074539       44.8094884732
atom         7.2400600000        5.9936300000        7.7862900000 C         0.0000000000         0.0000000000        31.7975576092       40.3501108489       30.8492584328
atom         1.0470700000        6.8943400000        9.4093800000 C         0.0000000000         0.0000000000       -21.7959917572     -233.3737715453     -116.9835311519
atom         4.8648100000        3.0957700000        0.0691800000 C         0.0000000000         0.0000000000         6.5067505699      -13.5687794330        9.0323455284
atom         6.4918800000        0.1100900000       12.5670000000 C         0.0000000000         0.0000000000       -77.5451420677      -18.6960066833      -40.4995083967
atom        10.7260000000        8.2973500000        1.9196300000 C         0.0000000000         0.0000000000        -4.0048322849      -20.1669172321      -18.0730195647
atom         8.3596500000        3.5314800000       12.6828000000 C         0.0000000000         0.0000000000        15.8511055780       27.7633081576       23.4320423074
atom         5.0505800000        8.0826500000        1.1420300000 C         0.0000000000         0.0000000000        95.0757947148      -83.9696069025     -118.1723040418
atom         0.3674800000        4.4728000000        0.7886900000 C         0.0000000000         0.0000000000        79.4490391831     -139.3849583600      -34.1700845967
atom         0.9138200000        1.6058100000        7.3841600000 C         0.0000000000         0.0000000000        -3.2139868849       20.1187866195        0.4770310971
atom        11.0873000000        9.5632400000        7.6291900000 C         0.0000000000         0.0000000000       -14.0911080735      -32.2241911491        8.5682833367
atom         0.3188900000        3.7198500000        3.4278200000 C         0.0000000000         0.0000000000        -5.6753845161       30.6036891852       -5.0042679986
atom         3.3238700000        9.7142800000        8.2651500000 C         0.0000000000         0.0000000000       -12.3559814303      -16.8446997586        2.5584925464
atom         5.8105900000        1.9327100000        9.7799400000 C         0.0000000000         0.0000000000        33.1020763946     -113.6701398555      -58.7337319434
atom         0.9192900000       10.0221000000        4.0136500000 C         0.0000000000         0.0000000000        46.1567534523      -90.7057739227     -213.5334818655
atom         9.9426100000        3.1824100000        8.7423900000 C         0.0000000000         0.0000000000       -24.1486631137       55.2369363931     -105.2207534182
atom         7.1825700000        6.4605500000       10.5965000000 C         0.0000000000         0.0000000000        25.1384455971        9.0464708676      -23.5982621930
atom         9.9569700000        7.2847600000       12.3422000000 C         0.0000000000         0.0000000000      -159.4210687845       30.9612682077       23.4540632466
atom         3.5165800000        5.6981500000        7.3361300000 C         0.0000000000         0.0000000000       -20.3521442260      -59.9611358748      -13.8921325367
atom         2.6824100000        1.6773700000        4.1479500000 C         0.0000000000         0.0000000000        88.1317872686      128.1999875896       20.2391672540
atom         2.1451000000        1.5141600000       11.3617000000 C         0.0000000000         0.0000000000         9.5100530918        1.9197276372       -7.8964721593
atom         2.6520200000        6.5481600000        1.6418600000 C         0.0000000000         0.0000000000         3.8140972799      -17.5283963634       12.9634495645
atom         4.9630300000        1.2907600000        2.1599000000 C         0.0000000000         0.0000000000         7.2888863765      -14.5346216977      -10.6752968599
atom         7.5901600000        8.7657500000        7.3782100000 C         0.0000000000         0.0000000000        47.9417915271       -9.5173174978       -7.3013150518
atom        11.0971000000       10.2896000000       11.4646000000 C         0.0000000000         0.0000000000       -19.4828636666      -20.4068481093       25.7884273183
atom         8.0825600000        4.5181900000        0.1456100000 O         0.0000000000         0.0000000000        55.3187502719     -197.0000698035     -125.2975040360
atom         0.4121800000        8.6639200000        7.5190400000 O         0.0000000000         0.0000000000      -122.0454771676      161.0531833685       13.6700385310
atom         2.6460400000        0.3726600000       12.0620000000 O         0.0000000000         0.0000000000        54.1808613121      138.0355344468      -44.9642701981
atom         8.4160100000        6.1309800000        7.9701000000 O         0.0000000000         0.0000000000      -226.9174829337      -39.6462111783      -49.8828237921
atom         0.5172400000        2.3029300000        6.5303300000 O         0.0000000000         0.0000000000        65.1272610595     -124.1205304868      137.0104277919
atom         9.7930900000        7.6729100000        9.4615200000 O         0.0000000000         0.0000000000       -80.6964682529       16.1869287306      -27.7105215959
atom         3.7258600000        3.1808100000       12.9430000000 O         0.0000000000         0.0000000000       185.9551769947      -13.7999433600       38.8428835178
atom         5.2730500000        0.2070600000       12.4064000000 O         0.0000000000         0.0000000000       170.0134616581      -10.3276137354       37.3621876957
atom         0.3795200000       10.1458000000       10.5207000000 O         0.0000000000         0.0000000000      -114.4247152985       26.8549245629      145.3763448048
atom        10.2948000000       10.4232000000        7.7550600000 O         0.0000000000         0.0000000000       135.6651234271     -135.4731537166      -21.9209608768
atom         4.1654300000        8.3735200000        1.9175500000 O         0.0000000000         0.0000000000       144.2825299326      -37.9903951945     -120.1434972749
atom         6.3045000000        5.3995400000        2.2334600000 O         0.0000000000         0.0000000000        45.0848854072        6.0570787764        0.6310776827
atom         2.8262200000        2.5065700000        3.2355500000 O         0.0000000000         0.0000000000       -45.5366397429     -185.8465464880      180.1795124074
atom         0.7247800000       10.3705000000        5.2070300000 O         0.0000000000         0.0000000000       107.8826682979      -23.5284857253      -92.6346891253
atom         1.7859000000        8.8343300000        0.0220100000 O         0.0000000000         0.0000000000       -38.0049734448       28.4774448183      -56.8755172822
atom         7.1459200000        9.5533800000       12.4025000000 O         0.0000000000         0.0000000000       -79.4643727751       77.1056080279       48.9104350498
atom         4.0209000000        4.6087200000        7.4837200000 O         0.0000000000         0.0000000000       -94.8520591776      234.3498413901      -32.0336499893
atom        11.1634000000        7.2782700000        2.3037500000 O         0.0000000000         0.0000000000       -73.0430760459      171.9716783231      -62.4637368600
atom         1.3213600000        7.9911200000       10.0016000000 O         0.0000000000         0.0000000000      -113.1719244245      -63.0076646354      -62.1757885364
atom         1.1725500000        2.1027000000       11.7230000000 O         0.0000000000         0.0000000000       126.9109599178      -82.3736748455      -40.8313976099
atom        10.8715000000        5.2310400000        0.7327100000 O         0.0000000000         0.0000000000       161.0481804456     -124.7826026454       24.2656643452
atom         2.8890300000        1.8293900000       10.3140000000 O         0.0000000000         0.0000000000       -72.6036770620      -88.8526732991       76.0912375374
atom         6.0650200000        5.9746800000        7.7120800000 O         0.0000000000         0.0000000000       203.1752208965       -3.9548016559        6.5969845269
atom         7.7012500000        5.4052100000       10.5480000000 O         0.0000000000         0.0000000000       -92.7850834732      161.7687678559       10.4210299267
atom         2.9066700000        6.6976400000        7.1434800000 O         0.0000000000         0.0000000000       119.1362593621     -182.6189786996       44.3267015294
atom         5.9930600000        2.9115500000        0.3556800000 O         0.0000000000         0.0000000000      -191.4036481991       30.2276792114      -54.6480250337
atom         1.5207500000        3.4298700000        8.7503600000 O         0.0000000000         0.0000000000        38.5012069294        3.4309806711       56.5146419108
atom         1.2892100000        0.8262100000        8.1796200000 O         0.0000000000         0.0000000000       -61.0277682938      117.2733332919     -131.5429474730
atom         5.8278400000        1.9539100000        2.6180200000 O         0.0000000000         0.0000000000      -154.9955858269     -121.3231041413      -74.1456540946
atom        10.2616000000        0.1745200000        3.6202400000 O         0.0000000000         0.0000000000         7.6909555962       17.9382883233       -0.1896092044
atom        11.2682000000        2.6452400000        3.5046700000 O         0.0000000000         0.0000000000        81.0143469095      171.0179518988      -10.1948867886
atom         1.5666500000        7.5676100000        5.0842700000 O         0.0000000000         0.0000000000        66.5845083723      -48.7868232837      -12.0271224647
atom         7.9623900000        0.7154500000        8.0193800000 O         0.0000000000         0.0000000000       -10.0532188370      -60.2365310172       96.9642376599
atom         2.8650100000        1.2320700000        5.2518800000 O         0.0000000000         0.0000000000       -44.0783434603       62.5188795297     -201.9939413857
atom         5.5024300000        5.4346900000       12.3253000000 O         0.0000000000         0.0000000000      -101.8382767180       38.8077936371       36.8341274381
atom         6.6999600000        7.5163500000       10.4462000000 O         0.0000000000         0.0000000000        67.6703299982     -174.2665980894       31.6150797264
atom        10.2355000000        9.2616000000        1.4718800000 O         0.0000000000         0.0000000000        80.4611386466     -157.6811095964       75.6037731730
atom        11.2077000000        7.4944800000       12.4129000000 O         0.0000000000         0.0000000000      -173.5990911420      -32.9551314189      -12.4929372073
atom         4.0118200000        4.5583500000        2.3936600000 O         0.0000000000         0.0000000000       -31.4983294400      -80.9663653222       35.7487997239
atom         2.2650100000        6.7769700000        2.7420100000 O         0.0000000000         0.0000000000        63.9927603874      -37.6585933383     -197.5923429377
atom        10.2272000000        4.8100100000       10.5867000000 O         0.0000000000         0.0000000000       -54.4880664685       66.2386109393       71.6062100809
atom         4.1234800000        0.6022900000        1.6784700000 O         0.0000000000         0.0000000000       152.5529969609      128.4267476065       92.9304332178
atom         2.9939400000        6.2479600000        0.5586300000 O         0.0000000000         0.0000000000       -65.9033064651       55.9054581302      184.5823739195
atom        10.3925000000       10.3801000000       12.3914000000 O         0.0000000000         0.0000000000       130.7552678946       -9.1546806889     -169.1091996013
atom         8.6649500000        9.7165300000       10.3766000000 O         0.0000000000         0.0000000000       -38.9873876394      142.7295824374      100.0861695447
atom         0.7368700000        4.8190300000        3.3510300000 O         0.0000000000         0.0000000000       -74.8241199399     -199.0827827324       15.6939500453
atom         8.6981600000        2.5359000000       12.1136000000 O         0.0000000000         0.0000000000       -67.3078743110      174.0752052355       99.4478787505
atom         3.9044600000        2.0779200000        7.4267300000 O         0.0000000000         0.0000000000       -33.9013866816       64.5838918309      -92.9946995562
atom         9.7542100000        5.4564800000        4.1086600000 N         0.0000000000         0.0000000000       -78.7828687319     -103.7115663595      176.0287570619
atom         0.9105800000        5.8619100000        8.8691600000 N         0.0000000000         0.0000000000        56.5787885370      350.7713163224      189.7558567918
atom         7.1476400000        3.7105600000        6.6196400000 N         0.0000000000         0.0000000000       -71.7824219312     -149.8596471470      150.3248930785
atom         3.4138900000        9.3525200000        7.1013200000 N         0.0000000000         0.0000000000         6.2831805593       62.7183293563      310.1977251978
atom         5.9599400000        3.1578300000       10.1880000000 N         0.0000000000         0.0000000000       -13.8427823395     -174.2010205616      -59.0370666670
atom         1.1771100000        9.6020500000        2.9077100000 N         0.0000000000         0.0000000000        -9.7315216943      139.1659142170      356.5121455886
atom         5.8654100000        7.6785600000        0.3456300000 N         0.0000000000         0.0000000000      -219.6559261826      135.7671194441      221.8474981591
atom         1.2198600000        3.6061400000        0.8236900000 N         0.0000000000         0.0000000000      -223.0582699468      230.8949968347      -32.2806406079
atom         8.2581100000        3.5783200000        2.8119700000 N         0.0000000000         0.0000000000      -111.3759170774      -69.7535675563      190.1192027469
atom         8.3914000000        6.5442000000        1.9671000000 N         0.0000000000         0.0000000000       -91.8205832217      191.2054218424        8.8277920856
atom         6.3681900000        1.0520600000        5.6636600000 N         0.0000000000         0.0000000000       -68.6941480461     -146.4422453986      140.9158192434
atom         6.9131600000       10.0313000000        2.8164700000 N         0.0000000000         0.0000000000        98.4422882787       -5.1550691653      197.9807247222
atom         7.0785500000        7.0136700000        4.4382700000 N         0.0000000000         0.0000000000        19.3633178627     -203.6406845567       91.7963021931
atom         1.4197200000        1.1031900000        1.3062400000 N         0.0000000000         0.0000000000      -199.9017885401      -60.9135265341      -55.7547957047
atom         4.0742300000        5.7710200000        9.7074600000 N         0.0000000000         0.0000000000       -70.3098836498     -188.5461830552      105.4919977486
atom         1.9769100000        5.7296500000       11.5258000000 N         0.0000000000         0.0000000000      -165.9639571724     -152.9716767080       27.1917579294
atom        10.8998000000        6.2982900000        6.5747500000 N         0.0000000000         0.0000000000        94.5828226227     -175.9343395796      -37.5601587911
atom         7.9884400000        7.5819000000        2.0134700000 N         0.0000000000         0.0000000000        88.5302603106     -201.1531122572      -11.1719072812
atom         4.4230500000        8.6020600000       11.2535000000 N         0.0000000000         0.0000000000      -120.2735260273     -167.7525614341       12.1654197102
atom         3.1839500000       10.0904000000        9.4274100000 N         0.0000000000         0.0000000000       -10.8501332360     -102.7306774857     -272.3813356274
atom         5.7718000000        0.8431100000        9.3499900000 N         0.0000000000         0.0000000000        15.1071083941      356.4091538472      135.7029095260
atom         4.7238800000        9.3464800000        4.7482800000 N         0.0000000000         0.0000000000      -181.2660531605       69.6053893196     -116.8098996975
atom         8.5337000000        8.7773300000        6.6657300000 N         0.0000000000         0.0000000000      -262.7929917963       -0.6984637726      189.5059341683
atom         2.8202300000        4.6468000000        5.2419500000 N         0.0000000000         0.0000000000      -177.7710381746     -130.3394715438       59.9555093107
atom         9.3546800000        4.9060500000        4.9915400000 N         0.0000000000         0.0000000000        83.0110052315      106.1046444885     -180.9945002342
atom         9.4028900000        1.5365600000        5.5090000000 N         0.0000000000         0.0000000000        21.6890614672       -1.1076416140      -12.7774649559
atom         9.7022400000        3.9351300000        7.8914700000 N         0.0000000000         0.0000000000        74.9273474316     -247.8572358675      274.9134733520
atom        10.1976000000        2.2767800000        9.6448600000 N         0.0000000000         0.0000000000       -20.2468000544      136.1451814465     -128.0707307171
atom         5.2348900000        2.9147400000        4.7807500000 N         0.0000000000         0.0000000000         6.4040968235      205.2571902372       58.0481910419
atom         4.5980300000        6.2104100000        5.0672700000 N         0.0000000000         0.0000000000       -16.7486424252      165.3150834683     -149.4801324682
atom         5.9462000000        0.3131500000        6.3783700000 N         0.0000000000         0.0000000000        78.7888021789      145.0625810056     -131.9489672657
atom         3.7267100000        4.8613800000       10.2537000000 N         0.0000000000         0.0000000000        76.7958273704      182.6466830778     -111.1338042171
atom         7.7463500000        3.2609500000        3.7514600000 N         0.0000000000         0.0000000000       113.3250343302       56.2247724100     -195.5267621328
atom         5.3964700000        3.9662200000        5.1022000000 N         0.0000000000         0.0000000000       -30.4447323355     -210.2839141561      -66.3874062855
atom         6.6221700000        8.7588600000        8.1383500000 N         0.0000000000         0.0000000000       209.4686833386      -23.9283564534     -155.5750591501
atom         7.4016800000        9.9765300000        3.8164700000 N         0.0000000000         0.0000000000       -88.4191527267       10.7835704362     -202.6163943488
atom         7.1237900000        5.9913400000        4.8786900000 N         0.0000000000         0.0000000000        -3.9642412314      210.9027042420      -90.3376725928
atom         0.3828600000        0.8087400000        1.0389200000 N         0.0000000000         0.0000000000       196.0280327423       61.2805426876       55.2753751250
atom         4.5631600000        6.9562600000        4.2435200000 N         0.0000000000         0.0000000000        -2.8302800325     -155.4431105091      153.3358235326
atom         1.1817100000        4.9618300000       11.6515000000 N         0.0000000000         0.0000000000       146.0508778666      150.1863420622      -20.2441287178
atom        11.3887000000        5.3241100000        6.3765300000 N         0.0000000000         0.0000000000       -89.3711416183      188.9128298708       41.1992290736
atom         3.8400100000        9.7026200000        4.1715200000 N         0.0000000000         0.0000000000       173.5522029841      -69.7016915216      112.2632975053
atom         3.7769400000        7.7021100000       11.3233000000 N         0.0000000000         0.0000000000       121.5891600820      172.3866398287       -9.0022944482
atom         8.7882700000        7.2167100000       12.3633000000 N         0.0000000000         0.0000000000       344.7043061009       11.6081718697      -19.7412678670
atom         8.9936200000        1.1796700000        1.6842400000 N         0.0000000000         0.0000000000        -7.8913687427       18.8584084651      -32.1583285017
atom         6.7387400000        2.9574900000        7.3322300000 N         0.0000000000         0.0000000000        80.5347348515      150.1427089274     -129.8803251539
atom        10.1242000000        8.5572800000        4.5557800000 N         0.0000000000         0.0000000000         3.6013612097       -6.4056035087        1.4203909426
atom         1.9654300000        3.9939200000        5.5338900000 N         0.0000000000         0.0000000000       176.8235329926      124.1513213840      -65.5032627815
energy    -32733.2654625142
charge 0
end
begin
comment generated by PY
lattice        11.4200000000         0.0000000000         0.0000000000
lattice         0.0000000000        10.5800000000         0.0000000000
lattice         0.0000000000         0.0000000000        13.1400000000
atom         9.2871300000        4.9284600000       11.6602000000 H         0.0000000000         0.0000000000       130.5861078307       18.2839164811       22.8780638898
atom         2.5061600000        0.0082100000        9.4171500000 H         0.0000000000         0.0000000000        40.8462077482      -83.4792547861       -4.4700856905
atom        10.8362000000        0.0742700000        5.6379300000 H         0.0000000000         0.0000000000      -119.9516700916       73.7299772045     -101.1926301697
atom         2.0598700000        8.6915900000        1.1001300000 H         0.0000000000         0.0000000000        12.8999126028      -27.9397158444      -82.4620633822