begin
comment generated by PY
lattice        11.4200000000         0.0000000000         0.0000000000
lattice         0.0000000000        10.5800000000         0.0000000000
lattice         0.0000000000         0.0000000000        13.1400000000
atom         1.0921300000        5.3253600000        0.0065000000 H         0.0000000000         0.0000000000       -64.4369721556       72.0026089672        2.5093217283
atom        10.3303000000        8.3579600000       12.2412000000 H         0.0000000000         0.0000000000       -10.1856679367      -45.3315777202       97.9941702097
atom         2.7075500000        7.4152200000        4.3437600000 H         0.0000000000         0.0000000000       -88.9238083384       24.9697955302      122.3263321446
atom         2.5500300000       10.2058000000        8.5928000000 H         0.0000000000         0.0000000000        89.3279888971      -17.6212687545      -49.0608203169
atom         9.7041000000        9.7039700000        9.5715000000 H         0.0000000000         0.0000000000        42.7643294796       24.9152989223      -89.8407552661
atom         3.7338600000        7.3057500000        7.1953800000 H         0.0000000000         0.0000000000       -30.7696208271      -69.9552602995       21.2073104356
atom        10.1660000000        9.0529000000        8.3297900000 H         0.0000000000         0.0000000000       -45.3141558678       34.9753261945       -4.0263941735
atom         5.7726700000        8.4181100000        6.1757100000 H         0.0000000000         0.0000000000         6.7162956500       -9.9015376908       14.9959575032
atom         8.7788200000        2.0968700000       13.0576900000 H         0.0000000000         0.0000000000      -148.4877593765      -93.8753056994       15.8107755497
atom        10.2706000000        3.0691400000       12.7277000000 H         0.0000000000         0.0000000000         6.9925313115       57.3634805076       13.9084868532
atom         3.9973600000        3.0731700000        8.4567900000 H         0.0000000000         0.0000000000         3.2799017045      -38.1746782112      -19.3133561393
atom         4.4335200000        0.3905100000        9.3129100000 H         0.0000000000         0.0000000000       104.5267619814       73.6310039767      -63.9561579587
atom        10.9700000000        5.3263500000        1.7739400000 H         0.0000000000         0.0000000000       -66.6609692023      -48.2313652434      -12.5404423900
atom        10.9450000000       10.2819000000        8.2838900000 H         0.0000000000         0.0000000000       -73.1044302839       -2.4432639075       44.9185675488
atom         8.8523800000        2.6099200000        2.3771100000 H         0.0000000000         0.0000000000       105.8392225564     -131.8927348903       12.7546855872
atom        10.5458000000        4.7507400000        9.1508400000 H         0.0000000000         0.0000000000       -74.1157805378      -17.4759629947      114.9699264700
atom         2.9900900000        3.6418300000        1.4742300000 H         0.0000000000         0.0000000000        22.0373337973     -120.9844420606       77.4851039035
atom        10.6985000000        3.7782200000        6.5563000000 H         0.0000000000         0.0000000000       -78.8521812812       95.7873435706       16.4918367551
atom        10.1875000000       10.0356000000        2.7939700000 H         0.0000000000         0.0000000000       166.6193465165       28.2887641908        8.0961960411
atom        10.1539000000        5.4398400000        6.3255900000 H         0.0000000000         0.0000000000         0.5263394062      -46.5503560581       46.9828393193
atom         3.8503700000        4.6032800000       12.1074000000 H         0.0000000000         0.0000000000        33.7060562248       96.8724084533      -47.9321364063
atom         4.2695300000        1.7431200000       12.1818000000 H         0.0000000000         0.0000000000        26.6767771696      -42.2112111498      -43.4547763471
atom         3.2694600000        3.1435000000        5.7856000000 H         0.0000000000         0.0000000000       -32.4391439885      -12.9882101793       -7.9257880193
atom         9.3138100000        4.8931400000        1.2535100000 H         0.0000000000         0.0000000000        81.8384819726       -5.0246659024       63.3866924962
atom         0.5793800000       10.2501000000        3.1706000000 H         0.0000000000         0.0000000000      -133.2024923474       -9.3120491596      -35.8834676203
atom         0.8385500000        1.1487500000       11.6516000000 H         0.0000000000         0.0000000000        23.9798845712       55.2491588609      -59.2003000239
atom         9.3876600000        4.3276600000        7.4775800000 H         0.0000000000         0.0000000000        49.3267959518       38.6053493475      -52.9771880068
atom         1.3564300000        7.3118400000        5.0828900000 H         0.0000000000         0.0000000000        54.7262537133       14.4979529420      -13.5362091793
atom         5.2410100000        0.7106800000        2.3362400000 H         0.0000000000         0.0000000000        32.8214226145       55.1731189663       18.4675259671
atom         3.6834700000        8.7470000000        9.5589300000 H         0.0000000000         0.0000000000       102.1229232054      -53.9942391919       -9.5353158754
atom         3.6991600000        5.6629000000        7.4503700000 H         0.0000000000         0.0000000000       -35.9935780617      150.9385703774        7.9561513634
atom         3.5584400000        9.9495500000        7.3224900000 H         0.0000000000         0.0000000000       -20.7698589187      -16.8695292704      104.2016715005
atom         9.0944400000        1.6799800000        3.4134500000 H         0.0000000000         0.0000000000        74.7349268422      -13.9624690103     -109.4770699714
atom         9.1928800000       10.4721700000        8.3946800000 H         0.0000000000         0.0000000000       -48.3134397358       13.6458209540      -29.6327960174
atom         7.1070500000        1.6856100000       12.9608000000 H         0.0000000000         0.0000000000       112.6996576633      -13.9224686819       26.2186958651
atom         2.8173500000        1.9918000000       12.1606000000 H         0.0000000000         0.0000000000       136.0353147013       26.3823878549       26.5727852348
atom         5.1147200000        7.7777700000       10.5024000000 H         0.0000000000         0.0000000000       -58.2058434781       27.6287033337     -106.1068205001
atom         5.2275000000        3.8310400000       10.7896000000 H         0.0000000000         0.0000000000       -69.1348658221      -66.0877105739      -78.7545223180
atom         5.7740200000        2.5491900000       10.7003000000 H         0.0000000000         0.0000000000      -133.0642155817       49.6937060457      -86.1769452929
atom         2.8480000000        2.0193100000        1.8058800000 H         0.0000000000         0.0000000000        43.3494100656      135.8901456670       20.1753108807
atom         9.4507800000        3.7669400000       11.9422000000 H         0.0000000000         0.0000000000        97.6942963848       49.7871188249      118.8917505994
atom         4.0155200000        2.7086800000       10.5047000000 H         0.0000000000         0.0000000000        69.1711359300       19.4713822558      -16.0923197774
atom         5.7549000000        1.5120300000        8.8036500000 H         0.0000000000         0.0000000000       -96.5666669238      -78.7067235679       21.3969472773
atom         0.9136600000        9.2261900000       11.5980000000 H         0.0000000000         0.0000000000       -86.4533080193       41.0498046800      -90.9036011425
atom         0.3631100000       10.0536000000       10.2785000000 H         0.0000000000         0.0000000000        -1.2470331614      -65.8287487166      113.0220111899
atom        10.4608000000        5.0974500000       10.7353000000 H         0.0000000000         0.0000000000       -86.4651445207      -71.6973979464     -106.3442680853
atom         9.9266800000        5.5546700000        2.6339700000 H         0.0000000000         0.0000000000       -12.3005272715      -23.7737217283       -7.6786419307
atom        10.1482000000        3.8630300000        2.5440500000 H         0.0000000000         0.0000000000       -13.3359520401      105.7304500261      -64.4988798152
atom         0.8238000000        4.4080300000        3.6334900000 C         0.0000000000         0.0000000000        61.3551381591       50.1429435768        8.5970981267
atom         5.3492300000        2.4852700000        1.7748500000 C         0.0000000000         0.0000000000       106.3534004006     -181.9084646459       58.0586278864
atom         9.8742100000        1.1120900000        6.6222800000 C         0.0000000000         0.0000000000       -41.0887262767       44.1732609129       73.5849310375
atom         6.4540400000        4.2003000000        3.0464800000 C         0.0000000000         0.0000000000       -42.0091155536      -33.2095273053      -47.6422546169
atom         6.9865200000        0.4240100000       10.3908000000 C         0.0000000000         0.0000000000       123.0246111865      -49.1727644603     -122.3977273808
atom         1.5505900000        4.4738800000        8.8117700000 C         0.0000000000         0.0000000000       -37.7605290193      -58.0291534208       71.0577675859
atom         5.2617000000        8.0237500000        8.4419600000 C         0.0000000000         0.0000000000       -63.5099471480     -125.6627840366      105.2857594763
atom         1.4320400000        3.0010000000       11.1314000000 C         0.0000000000         0.0000000000       -73.4748179732     -268.4515595298       14.2779544033
atom         1.0364300000        7.9499900000        7.5911400000 C         0.0000000000         0.0000000000      -128.4695734347       51.9631710319      -41.3498361328
atom         9.1903700000        2.6649000000        9.9258800000 C         0.0000000000         0.0000000000        45.2168449412      -23.7739609437      101.6556209440
atom         8.4511900000        6.4292800000        4.8640100000 C         0.0000000000         0.0000000000       -33.2372483504      -82.4415433126      164.4529570922
atom         5.1852600000        8.5484100000        4.3552000000 C         0.0000000000         0.0000000000        24.7132426184      -68.6352622264      187.5048627674
atom         3.1461000000        6.3087000000       11.4784000000 C         0.0000000000         0.0000000000       -69.8302736044       38.9003444831      -13.8115109169
atom         1.9777300000        4.1249700000        5.9529200000 C         0.0000000000         0.0000000000        -9.2823897342      -67.1176358188      -34.1827572491
atom        11.0023000000        6.9323200000        0.0491500000 C         0.0000000000         0.0000000000        22.4814916355       13.2950682285      -12.3557659995
atom         0.4861800000        1.7050800000        0.7924400000 C         0.0000000000         0.0000000000      -119.4670177945       63.7254346860       47.1134275491
atom         4.7806700000        5.3557900000        5.9076300000 C         0.0000000000         0.0000000000        13.1510189366     -282.2467164232       -1.8127060859
atom         2.4513300000        6.4290700000        1.5360300000 C         0.0000000000         0.0000000000         4.5188965919      -27.3230034307      -34.7949095236
atom         2.1897900000       10.0214000000        0.9160100000 C         0.0000000000         0.0000000000       -12.1917317661       41.4812407557      -99.7188277451
atom         9.1284500000       10.2795000000       13.0015000000 C         0.0000000000         0.0000000000        51.6630831402      -68.2274805523       63.1266331068
atom         7.5883800000        2.5784900000        5.2070300000 C         0.0000000000         0.0000000000      -127.9197853555      113.5427295524       49.7237406113
atom         3.1966200000        0.0455500000        3.5373300000 C         0.0000000000         0.0000000000        86.2869691946      -36.8209086808      -80.8963828434
atom         2.6984800000        1.7828900000        8.5575200000 C         0.0000000000         0.0000000000       -32.4282462707     -116.7994211306      -84.2166876455
atom         0.8707300000        0.3886100000        5.6482400000 C         0.0000000000         0.0000000000       -14.5873851707      -42.0563698030       72.2076349351
atom         2.4653500000        4.2565300000        9.4687800000 O         0.0000000000         0.0000000000       -91.3906267264       60.3947785296     -135.3772082874
atom        10.2245000000        2.3432700000        9.4290700000 O         0.0000000000         0.0000000000      -206.5118422199       39.7095113659       74.8969142559
atom         5.0019600000        7.9340700000        3.3673600000 O         0.0000000000         0.0000000000        25.7489166668      114.1791235037      132.0210763596
atom         0.2672900000        3.9189700000        4.4860400000 O         0.0000000000         0.0000000000        32.0721332555       38.3699697787     -107.4660727572
atom         1.7017500000        8.3876500000        8.4141400000 O         0.0000000000         0.0000000000      -112.9234664923      -91.0522535164     -112.9385692067
atom         2.1807700000        7.6742300000        5.1616900000 O         0.0000000000         0.0000000000        30.1268166021      -31.9488979136     -111.5245421781
atom        10.6750000000        1.3521900000        7.4533200000 O         0.0000000000         0.0000000000      -116.2393603956      -37.1366436162     -162.5541737869
atom         5.5274100000        4.0690500000        3.7384400000 O         0.0000000000         0.0000000000       168.8797015291       29.0485615105     -110.0648414093
atom         1.2854800000       10.3164000000        6.4578100000 O         0.0000000000         0.0000000000        -0.5096545776       39.4962537149      -60.1440722932
atom         8.2669700000        2.7626500000       10.7376000000 O         0.0000000000         0.0000000000       170.0961785593      -21.5161243447     -170.5378478176
atom         5.8952100000        7.3821200000        7.6165400000 O         0.0000000000         0.0000000000      -108.3786127947      144.1295982580      170.6405331745
atom         9.6119700000        1.6777000000        2.5601200000 O         0.0000000000         0.0000000000      -188.3103043244      161.0184489739       94.5332272564
atom         1.6474300000        9.1049100000        0.3949400000 O         0.0000000000         0.0000000000       106.1384999204      165.4548452501      116.6580869401
atom         1.5222700000        5.1611200000        6.3932200000 O         0.0000000000         0.0000000000        92.8851350688     -201.8123303286      -89.2090512665
atom         3.3662700000        9.6112900000        8.1984200000 O         0.0000000000         0.0000000000       -42.6233782855       98.1870560247      -48.4763949105
atom         7.2476100000        4.2186800000        2.1507200000 O         0.0000000000         0.0000000000      -116.2499871874        9.4920664537      164.2923366792
atom         2.5571500000        5.5889100000        0.6676500000 O         0.0000000000         0.0000000000        -7.7193219097      168.8874708463      185.3519792061
atom         6.3628700000        0.9962400000       11.1255000000 O         0.0000000000         0.0000000000        49.6759274755      -58.7345610070      -34.6349295077
atom         3.2749600000        6.6582700000        7.6578200000 O         0.0000000000         0.0000000000        72.2856793732      -90.1208774826      -37.8050576917
atom         9.1624400000       10.4903000000       11.8245000000 O         0.0000000000         0.0000000000        -0.4308405575      -54.0466464774      207.5069057889
atom         1.7520600000        4.0748400000       11.3361000000 O         0.0000000000         0.0000000000       -44.9135029103      -93.8377043273       -1.3614500639
atom         9.3195200000        9.8162400000        1.0149200000 O         0.0000000000         0.0000000000       -53.7265237423      125.5872936369     -275.2473939310
atom         1.5049900000        5.0194800000        2.9174100000 O         0.0000000000         0.0000000000      -107.1517252191     -100.6729146795       95.8464668396
atom         0.1351200000        0.9496800000        0.0243000000 O         0.0000000000         0.0000000000        54.2044295147       36.6114891232       52.3777773714
atom         2.3341800000        7.2669200000        2.3540900000 O         0.0000000000         0.0000000000        27.7377861766     -143.8423184940     -155.5893161725
atom         8.8439000000        0.9714700000        6.0764800000 O         0.0000000000         0.0000000000       191.0282224162       16.7033879297       71.8155262305
atom         5.3293700000        3.2217100000        0.8535100000 O         0.0000000000         0.0000000000        10.8790302098     -102.5262692805      159.2180421156
atom         0.0705000000        7.8193700000        6.7758300000 O         0.0000000000         0.0000000000       210.1737448451       15.3666764716      162.9993006682
atom         4.1511100000       10.0214000000        3.0116800000 O         0.0000000000         0.0000000000      -217.7600840966      137.7460181380      123.7872550051
atom         0.1365900000        9.5595200000       11.0938000000 O         0.0000000000         0.0000000000        98.4768532900       25.1589317087      -33.5252608276
atom         9.2179300000        5.5432400000        4.6389500000 O         0.0000000000         0.0000000000      -113.5090872102      158.9198634750       -2.3684624379
atom         7.9885000000        1.3854700000        0.0587300000 O         0.0000000000         0.0000000000        31.4778927714      127.4352164640      -19.0215938949
atom         5.2623700000        0.6743100000        8.7974000000 O         0.0000000000         0.0000000000        -7.5789758818       12.4526688810       52.1302463289
atom         2.6839400000        0.5375300000        1.1136300000 O         0.0000000000         0.0000000000      -104.6684753287     -207.4619798804      -22.6027731293
atom        11.1768000000       10.3642000000        2.6680100000 O         0.0000000000         0.0000000000       -21.8449925850      -18.5258902073       27.1154013627
atom         0.3141700000        2.5581600000        1.5494100000 O         0.0000000000         0.0000000000        62.4948203794     -104.9387603554      -88.1657418809
atom         7.8323500000       10.5123100000        9.6474900000 O         0.0000000000         0.0000000000      -183.6127830298       91.0464809125      166.7019468392
atom         4.5066600000        6.0595500000        5.0090400000 O         0.0000000000         0.0000000000        30.4834910637      -23.2641831132       90.2891443621
atom         3.7096500000        2.2802400000       12.4995000000 O         0.0000000000         0.0000000000      -177.3698381555        9.0502412317       -4.0350349678
atom         7.7187100000        3.7385900000        5.5797700000 O         0.0000000000         0.0000000000        -4.3857410401     -243.6830209447      -86.6292454804
atom         9.8541700000        4.5943000000       10.0528000000 O         0.0000000000         0.0000000000       162.3815992340      110.3069344337      -16.9866376689
atom         2.2214800000        0.6024800000        3.8160700000 O         0.0000000000         0.0000000000       139.6642252842      -84.5825976714      -35.5198680350
atom         6.9816900000        1.6150000000        4.9537100000 O         0.0000000000         0.0000000000       103.6000402617      133.1117056135       25.5457050437
atom         0.2151500000        0.9890200000        5.0040800000 O         0.0000000000         0.0000000000         5.0904267881       11.6022334707       -5.2537997834
atom        10.1984000000        3.9738000000       12.7862000000 O         0.0000000000         0.0000000000      -120.0747022294     -114.5979026741     -139.5579196265
atom         7.6381600000        6.8658100000        5.6613000000 O         0.0000000000         0.0000000000       146.7631510874      -63.7330512588     -175.0446430858
atom         0.4364300000        4.4613800000        8.4883200000 O         0.0000000000         0.0000000000       135.9633964198        0.0540171864       32.9353494929
atom         3.1787200000        2.9045800000        2.1241400000 O         0.0000000000         0.0000000000       -60.0371861409      -11.2932521316      -90.9462939979
atom         4.6006400000        5.5837600000        1.9517000000 N         0.0000000000         0.0000000000        -4.7288804078        6.1251781165       -6.5439311332
atom         5.7460300000        1.5489400000        2.5875400000 N         0.0000000000         0.0000000000      -143.0305725739      231.5684417164     -253.4002556458
atom        10.9854000000        7.9960100000        2.8437800000 N         0.0000000000         0.0000000000        28.3210082546     -116.9513383003       53.3379679953
atom         5.3569400000        8.8762900000        5.4790200000 N         0.0000000000         0.0000000000       -71.0526397573      -49.9861091813     -345.6786508416
atom         2.1980200000        7.0509000000       11.2749000000 N         0.0000000000         0.0000000000       304.4958926750     -209.1738568824       68.3657627821
atom         2.3034300000        3.0785800000        5.4824000000 N         0.0000000000         0.0000000000       -19.7860074587      280.6097895289      141.8264914779
atom         4.6039800000        8.1137900000        9.5430200000 N         0.0000000000         0.0000000000       143.4759367775        2.5392959806     -143.2593281910
atom         1.1353200000        1.8320800000       10.9442000000 N         0.0000000000         0.0000000000        74.9024803742      307.0017791052      108.2200170081
atom         7.6185300000        7.5744700000       13.0671000000 N         0.0000000000         0.0000000000      -126.9560469405      -50.4636733821     -185.5631726410
atom         4.3248900000        0.6952100000        5.7749600000 N         0.0000000000         0.0000000000        32.5840517713      132.6413131371     -202.4453350673
atom         7.4932500000        1.6848500000        8.1119100000 N         0.0000000000         0.0000000000      -113.1212988655      317.2937192187     -128.2247271138
atom         8.6272600000        6.4933200000        7.6701500000 N         0.0000000000         0.0000000000       329.7366576001      156.4749452869      130.0898786698
atom         9.5481200000        8.2722900000        5.0033600000 N         0.0000000000         0.0000000000       -67.6465363169       73.9069189725      -46.6542239387
atom         7.0239900000        9.6925000000        2.3345500000 N         0.0000000000         0.0000000000       -18.4145062053       42.5726553019     -122.8904449870
atom         3.3944500000        0.2863900000       10.8928000000 N         0.0000000000         0.0000000000        21.2762764654     -222.1648111391      162.5193308691
atom         0.1706900000        7.0039700000       10.3419000000 N         0.0000000000         0.0000000000        -5.5563228875     -108.1029211465     -215.0844039517
atom         4.4884200000        8.3255800000        0.4176900000 N         0.0000000000         0.0000000000       -39.4788166957      260.8474055812       50.1500873598
atom         4.4779600000        1.2965900000        4.8301300000 N         0.0000000000         0.0000000000       -48.3079126073     -137.5861260860      213.0621950653
atom         6.6340900000       10.0925000000        7.2074800000 N         0.0000000000         0.0000000000       176.9780822086      -27.2181940948     -167.4403317121
atom         9.9776500000       10.0078000000        8.5589100000 N         0.0000000000         0.0000000000       126.0559837987     -112.6147592771       99.8961635916
atom         4.1167200000        5.5430900000       11.6913000000 N         0.0000000000         0.0000000000      -247.1564010804       93.0690437183      -13.8097651009
atom         7.4480800000        4.7298100000       12.1626000000 N         0.0000000000         0.0000000000      -310.8468032564       19.4728331156       76.9085385033
atom         3.6176500000        2.3072800000        7.9611200000 N         0.0000000000         0.0000000000      -213.7399011135      -75.9043715845      159.4529336330
atom         8.1976300000        7.3819800000        2.6491500000 N         0.0000000000         0.0000000000      -197.3371002127      -48.0010454068       44.9535251804
atom         5.1859600000        6.1619400000        1.2859700000 N         0.0000000000         0.0000000000         6.5788182318      -15.1912267145       10.3474503579
atom        10.0773000000        4.8416600000        1.9908700000 N         0.0000000000         0.0000000000         7.3832268622      -22.9182407308       16.0029448018
atom        10.1917000000        7.9384500000        0.0912900000 N         0.0000000000         0.0000000000       234.3503025434     -241.1198453599     -114.7223406664
atom         0.3599800000        6.0552700000        0.0515400000 N         0.0000000000         0.0000000000      -186.6209337160      191.4258320003       13.9650924063
atom         8.7740600000        8.2001800000       10.0608000000 N         0.0000000000         0.0000000000      -241.1198477684      -59.1137523978      -85.4557496760
atom         6.2264600000        5.5945800000        9.6170200000 N         0.0000000000         0.0000000000       208.6436219553     -157.3168049739     -231.4031139910
atom         7.1076700000        2.7201500000        7.6974900000 N         0.0000000000         0.0000000000       107.0208445257     -309.0250914806      127.4364593387
atom         3.4348300000        9.9423900000       11.5803000000 N         0.0000000000         0.0000000000       -22.7205509818      232.9073949206     -184.9123104097
atom         7.0219400000        7.3219000000       12.1546000000 N         0.0000000000         0.0000000000       117.6643195990       60.8092093178      184.7349571440
atom         7.7447500000        7.9035100000        9.6970000000 N         0.0000000000         0.0000000000       243.9564269365       78.1366842023       95.4221132645
atom         1.8201200000        1.0243000000        8.8685200000 N         0.0000000000         0.0000000000       248.2850675866      166.7710750330      -86.2901669791
atom         9.6325700000        7.0076700000        8.0860100000 N         0.0000000000         0.0000000000      -327.9783150079     -155.7165368281     -142.5785924286
atom         8.9961800000        9.0740100000        4.5283400000 N         0.0000000000         0.0000000000        66.7887215485      -71.0809643816       43.2344315165
atom         6.9343100000        9.9705300000        1.2888700000 N         0.0000000000         0.0000000000         6.8975641699      -31.9506851479      125.0502577897
atom         6.9289600000        5.0607000000        8.8459300000 N         0.0000000000         0.0000000000      -211.7133859003      154.3502026874      235.6367775390
atom         0.1953300000        6.5536600000        9.3046200000 N         0.0000000000         0.0000000000        -2.2109468718      110.2420233372      223.2219807170
atom         4.3479900000        9.4277300000        0.6342600000 N         0.0000000000         0.0000000000        38.8454710199     -264.0314808935      -45.9979532333
atom         6.3210100000        4.8136900000       12.4404000000 N         0.0000000000         0.0000000000       317.7345138154      -41.3075031286      -79.8076838171
atom         7.4282300000        9.9995800000        6.4185500000 N         0.0000000000         0.0000000000      -176.6294188137        8.1657811328      176.5532765263
atom         4.9806300000        4.2861500000        6.3796700000 N         0.0000000000         0.0000000000       -62.0221694603      301.2539398374      -84.9891120244
atom         4.8415100000        3.0664700000       10.0588000000 N         0.0000000000         0.0000000000       136.0418120264       14.9525087055      180.0516103218
atom        11.2665000000        7.0889000000        3.3747600000 N         0.0000000000         0.0000000000       -27.0248430060       99.9552567760      -62.9629269647
atom         9.9472300000        4.5324300000        6.6591500000 N         0.0000000000         0.0000000000        33.2375893389      -82.4908087567        9.6880120542
atom         7.1310600000        7.1603000000        2.8765000000 N         0.0000000000         0.0000000000       210.8610628014       25.0631370161      -43.4483267948
energy    -32346.4161920486
charge 0
end
begin
comment generated by PY
lattice        11.4200000000         0.0000000000         0.0000000000
lattice         0.0000000000        10.5800000000         0.0000000000
lattice         0.0000000000         0.0000000000        13.1400000000
atom         1.2380300000        6.2452400000       12.9186000000 H         0.0000000000         0.0000000000        16.2225040957       -9.8104136751      -13.2351639142
atom        10.6640000000        8.5779600000        0.0766000000 H         0.0000000000         0.0000000000       -21.4146009254     -106.2085608145      -19.6577842289
atom         1.3969600000        7.1589500000        5.6905000000 H         0.0000000000         0.0000000000        75.5849802966        9.7079234835      -14.4466578993
atom         3.4488500000        7.6856200000        6.5577100000 H         0.0000000000         0.0000000000       -25.7338936711       49.0882267918      122.9083930885