begin
comment generated by PY
lattice        11.4200000000         0.0000000000         0.0000000000
lattice         0.0000000000        10.5800000000         0.0000000000
lattice         0.0000000000         0.0000000000        13.1400000000
atom         0.0471100000        7.6140900000        2.0751500000 H         0.0000000000         0.0000000000       -11.2592947654       26.2734132378      -38.8349435099
atom         4.7255500000        0.8288700000        6.1294900000 H         0.0000000000         0.0000000000       169.8187000831      -28.4727242248       97.0318295170
atom         6.6999800000        6.9831600000        6.9502400000 H         0.0000000000         0.0000000000        55.5249033068     -109.7238298809      -98.5616166916
atom         5.7652900000        6.5175800000        9.9108600000 H         0.0000000000         0.0000000000       109.7865000926       96.3573360894       47.0780874755
atom        11.2629000000        7.8248700000        1.4318100000 H         0.0000000000         0.0000000000         7.8341556706      -28.6735135351       60.7041517769
atom         1.5425300000        0.8213900000       11.6205000000 H         0.0000000000         0.0000000000        80.0289539530       30.6528166863       -4.6996281755
atom         3.1550100000        4.7915500000        6.7955500000 H         0.0000000000         0.0000000000        52.7067170729       18.9987644591       31.7939456104
atom         5.4445000000        8.6316800000        6.0087000000 H         0.0000000000         0.0000000000      -138.7447384614       11.8954003761      -52.5885621235
atom         4.8864300000        4.5500600000        9.6706000000 H         0.0000000000         0.0000000000         9.2044562016       43.5044404579       70.0382024640
atom         2.9202500000        3.4126200000        9.5069800000 H         0.0000000000         0.0000000000        -9.3219715673       26.4337672071      -15.5169742428
atom         4.0680400000        4.7205700000        7.3462500000 H         0.0000000000         0.0000000000       -31.8962203482      -82.7117746003       30.2128845012
atom         2.3287500000        4.8970400000        0.4201300000 H         0.0000000000         0.0000000000         4.2649578750      -11.4792116172       29.9339706008
atom         2.4327500000        7.8744700000        1.7324500000 H         0.0000000000         0.0000000000       -21.1866929172        7.9728663709       58.2149758292
atom        11.1877000000        1.7807900000        8.5317600000 H         0.0000000000         0.0000000000       -91.1832049788       77.3160393852     -115.9571617991
atom         3.3428700000        7.2162400000        4.5669100000 H         0.0000000000         0.0000000000       -84.8524371350     -108.6503009569       52.3967828817
atom         2.1864900000        8.3946100000        3.4293700000 H         0.0000000000         0.0000000000        32.7218401614        4.3338240084       -9.1727670986
atom         0.0793200000        5.3118900000        3.0018600000 H         0.0000000000         0.0000000000        25.0527622153     -101.2652364694       78.5883867876
atom         4.3924200000        4.0032600000        8.0045100000 H         0.0000000000         0.0000000000       -28.6937886882       60.8615688785      -49.2983923471
atom         7.3548200000        5.4860400000       10.5328000000 H         0.0000000000         0.0000000000       -61.2164211557      -67.6628842046      -80.0089886786
atom         8.9840100000       10.3295000000       10.5093000000 H         0.0000000000         0.0000000000        39.8402325345       11.1753551258      -13.4860771411
atom         6.6048200000        6.8988600000        4.9468000000 H         0.0000000000         0.0000000000        54.2751038445       12.2238356256        7.5613108713
atom         6.7877200000        0.6037600000       10.1960000000 H         0.0000000000         0.0000000000       -17.8562091045     -138.2777371378       54.5563929121
atom        10.7752000000        2.2553000000        7.9750500000 H         0.0000000000         0.0000000000        65.2419595584      -99.0070432456       99.2112799340
atom         0.1664400000        2.3905600000       10.8624000000 H         0.0000000000         0.0000000000       -10.4698230552     -128.4113339693      -27.8627054605
atom         6.7887700000        0.3325400000        7.4244400000 H         0.0000000000         0.0000000000       -56.5909071571     -117.7784315971       52.6592613606
atom        10.4884000000        0.4393500000       10.0160000000 H         0.0000000000         0.0000000000        -0.5221860251      -32.8069341314       -1.8324128805
atom         5.4959200000        0.8525900000        6.5502300000 H         0.0000000000         0.0000000000       -86.8334694088      -21.3016317663      -60.1716918397
atom         1.6995400000        3.3047300000        7.0834600000 H         0.0000000000         0.0000000000        10.2216281984     -130.6738762142       56.9118158922
atom         0.8676500000        7.8260900000        4.8041700000 H         0.0000000000         0.0000000000        17.7373976145        8.2769326944      -51.4608290615
atom         5.8373700000        5.1871300000        8.2550700000 H         0.0000000000         0.0000000000        72.5675264608      -13.0421704399     -128.9164995602
atom         1.9211400000        2.2023200000       11.2799000000 H         0.0000000000         0.0000000000        58.5774879979     -125.7937586181       68.4445616560
atom         4.4816400000        8.6203500000        5.6256500000 H         0.0000000000         0.0000000000       130.4486436877       18.2172154888       67.4202144581
atom         2.8902700000        6.5957700000        4.9260200000 H         0.0000000000         0.0000000000        62.3011502178      118.4774854525      -68.4953602910
atom         0.0847000000        1.5722500000       10.6616000000 H         0.0000000000         0.0000000000        -2.8120557696      125.3177777132       36.1976022473
atom         1.0342900000       10.5331300000       13.0127000000 H         0.0000000000         0.0000000000        -0.6879645272      -66.6880250766      -44.4184370052
atom         4.9560200000        2.1678400000        7.8660900000 H         0.0000000000         0.0000000000      -123.0413705737      -13.8228218095       71.9565127203
atom         1.8157900000        3.3161000000       12.4500000000 H         0.0000000000         0.0000000000       -84.8498736852      -56.9410815159       21.4207534890
atom         6.3608100000        5.1780000000        7.5563500000 H         0.0000000000         0.0000000000      -106.1184571539        1.2584933792      111.8494133102
atom         1.1736500000        3.0290000000       12.4810000000 H         0.0000000000         0.0000000000        99.4249622461       28.1075827371        0.8928562672
atom         0.2989500000        4.2627400000        4.3557700000 H         0.0000000000         0.0000000000        14.3461696929       37.3428181128      -56.9157037263
atom         7.0705800000        6.2726000000        6.3842100000 H         0.0000000000         0.0000000000       -59.8250950472      116.1995500461       84.7491778857
atom         1.2653000000        4.5539100000        2.8475000000 H         0.0000000000         0.0000000000       -86.2100990006      -21.5739049251       73.6202144063
atom         6.4204600000        7.0219500000       10.2235000000 H         0.0000000000         0.0000000000      -113.5290206391      -88.3295489361      -58.6287991376
atom         6.7049800000        4.8870600000        9.9854200000 H         0.0000000000         0.0000000000        84.3815784132       55.5372822435       62.0671413757
atom         6.7811600000       10.2055000000       10.5907000000 H         0.0000000000         0.0000000000         9.1336076553      138.2145446373      -51.9152582586
atom         4.2441000000        2.1158300000        8.2758500000 H         0.0000000000         0.0000000000       128.7487277973        7.2251947060      -75.6520494181
atom         4.9377700000        4.9658800000       10.2300000000 H         0.0000000000         0.0000000000         0.1288030790      -53.4276549669      -61.6057114512
atom         1.7562700000        2.3649800000        7.4656800000 H         0.0000000000         0.0000000000        -6.4406581468      130.8932177302      -61.5487374437
atom         6.1955800000        8.4641000000       12.5650000000 C         0.0000000000         0.0000000000     -2542.4403332650     -992.1948677533       38.0631706726
atom         2.3787100000        6.7046800000       11.6934000000 C         0.0000000000         0.0000000000      -639.2480701900      768.3494871981     -107.0253200817
atom         3.5328300000        5.8831500000        9.3501900000 C         0.0000000000         0.0000000000       -83.2970242417      409.6064126703      310.9143803313
atom         1.7356900000        0.9882000000        9.4555200000 C         0.0000000000         0.0000000000       952.1991871034    -2417.7765871041      116.2071067573
atom         1.6217700000        6.0218700000        6.7921100000 C         0.0000000000         0.0000000000       193.9353380854       98.0709859594      186.5063433500
atom         7.5869000000        3.6911200000        8.7463900000 C         0.0000000000         0.0000000000      -302.8346669175     -277.8062825979      185.5749292214
atom         9.9832300000        5.5345100000       11.2234000000 C         0.0000000000         0.0000000000       371.9762174011     -439.2871690458     -944.6459897278
atom         4.5530900000        2.7177700000        1.6196200000 C         0.0000000000         0.0000000000      -244.5267734140       29.3651141192     -367.7193753696
atom         7.6536900000        8.8141300000        3.8853900000 C         0.0000000000         0.0000000000       165.1202413384     -205.0617086219    -2381.2067781560
atom         4.7762600000        6.3504400000        5.8511900000 C         0.0000000000         0.0000000000       217.7761835732     -267.9042954008     -544.8098464309
atom        11.2371000000        8.4903200000        6.4977200000 C         0.0000000000         0.0000000000      -218.2895460335      403.6425248020     1095.3480280336
atom         0.0403200000        7.4751900000       12.6702000000 C         0.0000000000         0.0000000000      -560.0821009255     -860.6209739458     -436.4744332246
atom         3.1741300000        7.5788100000        6.8466000000 C         0.0000000000         0.0000000000        40.9392014110       -6.0002985210      106.9220773270
atom         8.0690000000        6.7030500000        8.7928500000 C         0.0000000000         0.0000000000      1112.3392447308     1731.5232686875      238.1052627952
atom         0.9287200000       10.0239000000       10.3159000000 C         0.0000000000         0.0000000000        -4.0487860608     -265.4454036135       12.0847485992
atom         6.9673600000        9.9986600000        8.0259200000 C         0.0000000000         0.0000000000       -13.7619745638      179.4882591737      -77.2187034638
atom         9.5987200000        4.8619700000        8.6059200000 C         0.0000000000         0.0000000000        59.2749237594       72.8171969681      117.3314685506
atom         8.3503300000        2.1093200000       10.3760000000 C         0.0000000000         0.0000000000      6003.8005896342   -16339.8639792915    -4583.2471727658
atom         3.3490700000       10.0552000000       10.6132000000 C         0.0000000000         0.0000000000        97.2664316067       -9.4403670784     -323.3318478750
atom         3.5645000000        3.4414600000        3.4543600000 C         0.0000000000         0.0000000000       100.5902878088       90.9124392131     2966.0862814719
atom         0.5775000000        5.0222700000       12.0983000000 C         0.0000000000         0.0000000000      -287.2438683987     -117.9423563110      194.4126542755
atom         3.5005600000        2.0700700000        5.6055100000 C         0.0000000000         0.0000000000     -1128.9114037748     2134.0064775015    -1961.9873789422
atom         8.5876700000        7.9607400000       11.1987000000 C         0.0000000000         0.0000000000       357.2944942009     -795.3776939113     -941.6148540108
atom        10.0996000000        8.9976200000        9.7053500000 C         0.0000000000         0.0000000000        96.4472439341     -176.0973826569     -170.7404934525
atom         7.4609600000        2.5798500000        8.9383600000 O         0.0000000000         0.0000000000      -111.1457384546       70.9141063770      -57.3492441606
atom         4.4270100000        6.7961100000        6.6493200000 O         0.0000000000         0.0000000000      -285.0683042262      332.9359407034      561.9320018896
atom         0.5519000000        8.2272200000       12.8481000000 O         0.0000000000         0.0000000000       541.4241037514      807.5926874970      343.0764722365
atom         5.6011600000        7.7549300000       11.8817000000 O         0.0000000000         0.0000000000      -223.9119330451      -43.6917154237      -99.1271630028
atom         7.9980000000        8.3126000000        4.5699300000 O         0.0000000000         0.0000000000       635.2497477128     -895.9899969748     1076.1785192062
atom         7.2113300000        0.3272400000        5.1842700000 O         0.0000000000         0.0000000000        -5.7007723873      -24.9870612177      -22.4243923725
atom         4.1773900000        6.1914300000        8.5998400000 O         0.0000000000         0.0000000000       414.8144805028      206.6413593180     -265.0137868932
atom         1.0611900000        1.3785600000        9.1433600000 O         0.0000000000         0.0000000000     -2225.5584938149      923.3562037740    -1177.5252387811
atom        10.3450000000        9.4940400000       11.8367000000 O         0.0000000000         0.0000000000       -43.4085324277     -148.8163384661       13.2408949140
atom         5.1660800000        6.5378400000        4.7946600000 O         0.0000000000         0.0000000000       -25.3562260867      -84.7622738102      -22.2741615762
atom         9.7728700000        5.9603100000       12.0190000000 O         0.0000000000         0.0000000000      -306.8488520822      415.1910913764      938.6148373657
atom         0.9943200000        3.5950200000        9.2756400000 O         0.0000000000         0.0000000000       -83.7027936444      118.6402839318       27.4205249915
atom         3.0933100000        9.7474400000       11.5696000000 O         0.0000000000         0.0000000000        46.2672288608      -38.8648493914      188.2516396439
atom         7.6023400000        6.0487300000        8.5315300000 O         0.0000000000         0.0000000000     -1401.3258450944    -1556.2975818148     -892.5241908212
atom         2.2685000000        8.8348300000        5.6772400000 O         0.0000000000         0.0000000000       852.1686221121      634.4499355872     1307.3089162958
atom         2.1785600000        1.6489200000        9.8229700000 O         0.0000000000         0.0000000000      1276.9383378324     1340.8158610739      851.4621700324
atom         8.1753200000        2.5907600000       10.5200000000 O         0.0000000000         0.0000000000     -6417.5207862319    16814.1141496983     5925.4068241351
atom         1.2816000000        6.5808400000        5.9549400000 O         0.0000000000         0.0000000000        -1.8278242821      247.0937639464     -408.1664852940
atom         2.3499900000        1.3060400000       11.4992000000 O         0.0000000000         0.0000000000       -98.8880187790       96.5153354028       73.1125291014
atom         1.0271100000        5.1359100000        6.7616000000 O         0.0000000000         0.0000000000      -143.1311171390     -389.2392292776       97.0295942392
atom         3.5395700000        3.4255700000        2.6634000000 O         0.0000000000         0.0000000000      -166.7897000836       10.8290611689    -3010.1766988437
atom         3.5694800000        3.5547500000        4.5659500000 O         0.0000000000         0.0000000000       167.3878640806      217.4420220920      -16.1640213741
atom         6.9522800000        8.7443700000       12.5445000000 O         0.0000000000         0.0000000000      2559.2565705906     1072.5497836326      177.3330116558
atom         8.0776900000       10.3212000000        8.1900900000 O         0.0000000000         0.0000000000        92.0520835255      -32.8589458329       42.0331905365
atom         8.6243600000        2.0736200000        9.4422800000 O         0.0000000000         0.0000000000       567.7647014021     -607.1295584952    -1225.7211945882
atom         2.8651100000        5.1835000000        9.0882300000 O         0.0000000000         0.0000000000      -462.3090273380     -588.3719656835      -94.6971639019
atom         2.9322700000        5.9446300000       11.6466000000 O         0.0000000000         0.0000000000       585.1606770494     -732.0642175001      -23.4674115128
atom         7.2968200000        9.3358100000        4.5082000000 O         0.0000000000         0.0000000000      -786.6514503794     1193.6406097185     1287.6750797970
atom         2.8765700000        2.7745600000        4.9988600000 O         0.0000000000         0.0000000000      -228.3158826037     -114.6845260984       85.1237770235
atom         8.1541200000        8.6796300000       11.4991000000 O         0.0000000000         0.0000000000      -785.0803298988     1372.9085199990      188.4626110770
atom         0.0319000000        7.9929900000        5.7351200000 O         0.0000000000         0.0000000000       156.9317896137     -489.9235283439     -864.0500305681
atom         6.3005900000        7.4826000000        4.3767400000 O         0.0000000000         0.0000000000       -16.0785090990       -4.8582151504       -3.8736424324
atom         5.4537200000        5.4519900000       13.0655000000 O         0.0000000000         0.0000000000         0.1835790643       17.8921247836       -6.2461875089
atom         3.9919700000        0.4878800000        9.9419200000 O         0.0000000000         0.0000000000       -35.1119992389      -21.0537884463       48.4974107527
atom         1.4385200000       10.0661000000       12.2179000000 O         0.0000000000         0.0000000000       -37.3627535073      -71.5352745168       -6.8234276677
atom         6.4253300000        9.1160700000        8.5449500000 O         0.0000000000         0.0000000000        44.9720176356       64.8188604391       24.0942085445
atom         1.2291100000        7.0058200000        7.6680500000 O         0.0000000000         0.0000000000        -7.4620503721     -123.3226731469       64.3202378903
atom        10.8765000000        3.9096600000        7.6432700000 O         0.0000000000         0.0000000000        82.4761998454      -27.2434948261      281.9276680246
atom         9.2234700000        6.4793800000        6.5876900000 O         0.0000000000         0.0000000000        54.4315852959       48.7801014002     -135.4919262696
atom         0.9471300000        5.8257800000       12.5271000000 O         0.0000000000         0.0000000000       160.9093970903      508.7433581931      420.7646007666
atom         2.1488800000        8.0401800000        2.5867000000 O         0.0000000000         0.0000000000      -101.1475861445      -20.8959873762       45.2430002925
atom         3.7911600000        1.5321600000        6.1015600000 O         0.0000000000         0.0000000000      1106.6511275651    -2197.6701931194     2023.9124470734
atom         0.8358600000        4.5260600000       11.3040000000 O         0.0000000000         0.0000000000        95.7285357304     -463.8999035019     -516.5430216413
atom         9.1336500000        6.2577900000        0.9141700000 O         0.0000000000         0.0000000000        13.0508372038        4.4415638459      -11.5917043765
atom        10.2028000000        3.6946800000       10.0095000000 O         0.0000000000         0.0000000000        -8.1702220931       95.4281418867      -57.7931136780
atom         1.8332400000        8.4903400000        4.9869000000 O         0.0000000000         0.0000000000      -792.9762398655     -631.6536589808    -1356.2356857525
atom         8.1187700000        4.3585500000        8.2039700000 O         0.0000000000         0.0000000000       289.5721843900      265.0789517880     -234.6473226011
atom         0.3787200000        4.3916800000        3.4351100000 O         0.0000000000         0.0000000000        38.1873818597      112.5363503867     -101.2112665061
atom         0.0088200000        7.0959500000        9.3070300000 N         0.0000000000         0.0000000000        43.1052211181      221.6362293929      -28.9033221253
atom         1.4468900000        6.9262100000       11.0074000000 N         0.0000000000         0.0000000000       -53.5126363463       33.1577286826       -4.3812698139
atom         2.6050000000        8.0963200000       10.5176000000 N         0.0000000000         0.0000000000        27.7114193467      -97.1750255120     -154.7340213038
atom         1.6259500000        8.8757000000       11.5638000000 N         0.0000000000         0.0000000000      -169.1645207841      226.0719029819      122.4864320934
atom         0.8243600000        9.3934500000        8.6368800000 N         0.0000000000         0.0000000000      -216.5984788347      237.8317419919      -61.8356194125
atom         8.5474100000        6.4378200000        9.6089200000 N         0.0000000000         0.0000000000       419.9257166988      -64.7467304103      790.0538925504
atom         1.0304800000        5.6370900000       10.1339000000 N         0.0000000000         0.0000000000        31.1423844273      -57.4248524497     -107.4234141851
atom         3.6836900000        2.9423500000        0.7647400000 N         0.0000000000         0.0000000000       315.2669723927     -105.8829751138      222.8664737924
atom         0.0065700000        4.7197900000        9.6467300000 N         0.0000000000         0.0000000000       111.6459035170      -90.2586329649      -35.0293449678
atom        11.2828000000        7.0193700000       11.5939000000 N         0.0000000000         0.0000000000         8.7511593225       42.1148312623      157.0929069797
atom         2.2701900000        9.3044800000        7.3271900000 N         0.0000000000         0.0000000000        67.8887585589       17.4078166150      -76.4757170756
atom         1.8119900000        8.7016700000        9.6411000000 N         0.0000000000         0.0000000000       -34.4081108853      -10.5295565650       49.4697713932
atom         9.7342900000        7.1398300000       10.0885000000 N         0.0000000000         0.0000000000      -248.9389797418     -101.0264882459      -97.2767991499
atom         8.7732200000        7.4079100000        5.9924200000 N         0.0000000000         0.0000000000        86.5127322187     -156.7249910871       97.4802429064
atom        11.0508000000        8.3397600000        8.8474100000 N         0.0000000000         0.0000000000      -179.7965377749      -26.2919669761      114.5715586853
atom         5.1031500000        9.2114100000        8.7103900000 N         0.0000000000         0.0000000000       181.0060996151      339.1335829752      169.6322032259
atom         2.2699500000       10.2179000000        8.5052100000 N         0.0000000000         0.0000000000       -10.3732609176       20.2665520703       22.1516796592
atom        10.2919000000        8.2577200000       11.2747000000 N         0.0000000000         0.0000000000        31.1999611876      254.9576129356       64.6115450232
atom        10.5668000000        7.8903200000        7.5129200000 N         0.0000000000         0.0000000000       104.8823555720      -12.4503512017       64.7983810463
atom         4.6088000000        8.1687100000       11.3258000000 N         0.0000000000         0.0000000000        99.8704396024      -55.9254501377       52.8585350632
atom         3.1894600000       10.2654000000        6.8265000000 N         0.0000000000         0.0000000000       -68.9563962330     -378.7710468590     -490.6882838253
atom         8.9130100000        9.3818300000        8.3546300000 N         0.0000000000         0.0000000000      -279.1718593316      468.7686899203      682.2257789222
atom         9.0608500000        7.5099200000       11.8814000000 N         0.0000000000         0.0000000000       618.1504001426     -527.9235217026      534.3447413675
atom         4.9861600000        0.5221100000        9.4848100000 N         0.0000000000         0.0000000000        27.0762387309      -18.1695586668       -8.1377323294
atom         9.3860200000        7.3606000000        8.2723300000 N         0.0000000000         0.0000000000        48.4697878686      -43.2019173507      -63.7423886295
atom         0.8101900000        7.8458200000        3.3844700000 N         0.0000000000         0.0000000000        41.1787898543      -26.7829846303      -65.2344631950
atom         3.7743400000        8.7729000000        9.5814400000 N         0.0000000000         0.0000000000      -109.5910433356       84.3353031691       24.2481913697
atom         3.2525400000        0.3982600000        7.5378500000 N         0.0000000000         0.0000000000        25.4147842618      426.5659498285      388.6121292143
atom         0.1717400000        0.3470700000        0.7212800000 N         0.0000000000         0.0000000000      -160.4080242283      120.6150982762      238.7744810165
atom        11.3440600000        6.4795500000        7.8193800000 N         0.0000000000         0.0000000000       -11.2420031337       -9.1975062302      -75.5060659195
atom         0.2823100000        8.8945700000       11.1533000000 N         0.0000000000         0.0000000000       140.4202647468      116.1986080827     -179.3610008578
atom         0.9227300000        8.4269700000        7.5715900000 N         0.0000000000         0.0000000000        57.7434853360      138.0330325137       37.1383671023
atom        10.4306000000        4.0816300000        6.7698600000 N         0.0000000000         0.0000000000       -86.1108996809       59.0244644032     -337.2915591936
atom        10.9761000000        0.7495800000        1.6131900000 N         0.0000000000         0.0000000000       165.8934021599     -112.8595071729     -240.0964527601
atom         0.0491600000       10.4463000000        8.1155100000 N         0.0000000000         0.0000000000        58.3883727578      -74.5877164272       69.4815918474
atom         1.4063200000        5.8887700000        9.0037100000 N         0.0000000000         0.0000000000       -10.0951071670     -147.2642982370      110.5175096332
atom        10.8687000000        5.9238000000       10.5849000000 N         0.0000000000         0.0000000000       -82.3894679013     -112.8427960295       94.8778476392
atom         8.9602900000        8.8166700000        7.5256700000 N         0.0000000000         0.0000000000        52.5145318928     -420.1994108800     -606.4094377647
atom        10.3757000000        5.9616100000        6.2879100000 N         0.0000000000         0.0000000000      -110.9232351555       25.1552319466       83.2777489964
atom         5.0375600000        8.2713600000        8.2606600000 N         0.0000000000         0.0000000000      -182.8546346360     -511.5535083197     -208.9731797146
atom         3.6780700000        7.7946900000        8.6302900000 N         0.0000000000         0.0000000000       183.4125423085       60.1657182503      -54.1111300881
atom        10.0000000000        9.6410400000        8.0588800000 N         0.0000000000         0.0000000000       157.9323578940       91.8816705282      -15.3790281349
atom         1.8651500000        7.8537100000        8.5968800000 N         0.0000000000         0.0000000000        -9.4788000692       12.8973977783      -15.2926507427
atom         0.4358700000        5.0076000000        8.3128800000 N         0.0000000000         0.0000000000        56.2400513551       69.6336730461      104.6695245653
atom        10.2341000000        6.4205000000        8.9775900000 N         0.0000000000         0.0000000000       -99.6944090136       82.6951926987      -24.3347401571
atom         2.5867000000        6.9177600000        9.5746200000 N         0.0000000000         0.0000000000        92.1743296220       67.7974829386       -0.7145127915
atom         0.6055300000        7.7841100000       10.2006000000 N         0.0000000000         0.0000000000        32.1942373006      -60.7118118754       65.0373118626
atom         3.5232000000        9.5992200000        8.2955900000 N         0.0000000000         0.0000000000       -47.5865021561        9.1102246818      181.2712421684
energy    -20795.6191047731
charge 0
end
begin
comment generated by PY
lattice        11.4200000000         0.0000000000         0.0000000000
lattice         0.0000000000        10.5800000000         0.0000000000
lattice         0.0000000000         0.0000000000        13.1400000000
atom         1.2678400000        5.5994900000        3.6598200000 H         0.0000000000         0.0000000000       -40.9880664297      124.5002326804       13.2032359505
atom         9.5285200000        8.7811300000        4.7749800000 H         0.0000000000         0.0000000000        -6.1031003015      -27.8822188433       35.5710622048
atom         5.3846200000        8.6353900000        6.0818300000 H         0.0000000000         0.0000000000       -56.4805459602      110.6011943448       32.8440982819
atom         6.0715300000        6.6588800000        9.5835300000 H         0.0000000000         0.0000000000      -113.1329747029       17.0316130061      105.8804576285