begin
comment generated by PY
lattice        11.4200000000         0.0000000000         0.0000000000
lattice         0.0000000000        10.5800000000         0.0000000000
lattice         0.0000000000         0.0000000000        13.1400000000
atom         8.0609100000        8.5601600000        3.9647000000 H         0.0000000000         0.0000000000       -70.8188976184       29.0015798830        0.2953780730
atom         6.2131200000        9.7735800000        5.8643900000 H         0.0000000000         0.0000000000        58.8073945053       67.8970251414       39.1171024886
atom         8.8244600000        7.4055200000        5.6958300000 H         0.0000000000         0.0000000000       -43.4430800613      -75.5977963246       20.3809317233
atom         3.5637800000        8.4128200000        9.3582700000 H         0.0000000000         0.0000000000       125.3196640280     -106.5360649341       48.1149811722
atom         1.0266300000        0.7124900000        3.4187500000 H         0.0000000000         0.0000000000        -4.0091623101      -15.2654534355       34.9599015825
atom        11.0578000000        0.3945200000       10.9845000000 H         0.0000000000         0.0000000000        86.4305379969       63.5365324577       14.8320169364
atom         8.1961300000        3.2673200000        5.3746400000 H         0.0000000000         0.0000000000        23.2149081794       31.7392133169     -117.6667920724
atom         1.5409700000        2.4033200000       12.1175000000 H         0.0000000000         0.0000000000        13.9999019262       19.4595727017       10.8634212478
atom         2.5280900000        3.4011600000        8.4024800000 H         0.0000000000         0.0000000000        85.2790428466       86.4530201322      -58.6330027925
atom         7.3897100000        6.7652800000       11.2063000000 H         0.0000000000         0.0000000000        21.2174042800      -13.9458226448       -4.6458154346
atom         5.5644000000        3.3123000000        2.5745700000 H         0.0000000000         0.0000000000       -20.8810656625       16.9696143341      161.1303754986
atom         9.4766400000        6.6396600000        0.0682300000 H         0.0000000000         0.0000000000        -4.7623670271       -2.0606479468      -21.8753788437
atom         1.4948700000        2.5729600000        9.0300100000 H         0.0000000000         0.0000000000      -139.0223997462       10.4814634093      -43.2610989204
atom         9.1348100000        8.0060600000       10.4637000000 H         0.0000000000         0.0000000000        91.4746872312      -26.7977240959     -137.8306436491
atom         4.9795500000        2.7115300000        3.9392300000 H         0.0000000000         0.0000000000        99.3766781616      102.2082518657      -62.5118247525
atom         6.9458300000        8.3181100000        9.5718400000 H         0.0000000000         0.0000000000        77.4661690513       77.4229808992       65.3693497903
atom         7.8348200000        0.5504300000        3.9973000000 H         0.0000000000         0.0000000000        -7.5797512811       70.3777038266       54.3197992680
atom         1.4059400000        3.8896600000       11.6001000000 H         0.0000000000         0.0000000000        -6.3796324554     -164.8210561281      -12.1839023284
atom        10.1533000000        8.0918500000        0.7955000000 H         0.0000000000         0.0000000000       -27.0417890075      -61.7632631865      -64.8973374704
atom         6.7635700000        4.1024700000        8.1068600000 H         0.0000000000         0.0000000000        32.1551693117      -23.0919957455      -21.6784157889
atom        10.9024000000        1.2103300000        5.5623300000 H         0.0000000000         0.0000000000        -8.4581649395       75.3967430378       37.5281810756
atom         4.0646100000        5.6608700000        1.2781800000 H         0.0000000000         0.0000000000        41.3343342784     -104.3995226349        6.1554326538
atom         0.3643200000        6.7402300000        3.0146200000 H         0.0000000000         0.0000000000       -76.7213152875      -42.6430054230      -75.9533919539
atom         9.0631300000        8.7606500000        8.1758800000 H         0.0000000000         0.0000000000       -28.1530960419       26.3221463240      -70.5734623278
atom         1.7054100000        2.1011900000        3.0161500000 H         0.0000000000         0.0000000000       -18.3079084558      -13.3161106797       -0.2934592609
atom         6.8249100000        2.9805700000        8.9072900000 H         0.0000000000         0.0000000000       -22.1724439596       18.7055966506     -103.8928165966
atom         1.8823000000        5.1403000000        1.7458000000 H         0.0000000000         0.0000000000        24.0574517974      -90.9521561702       80.0079571837
atom         9.2512500000        4.8307300000       12.5279000000 H         0.0000000000         0.0000000000        60.0358938954       67.5696924539       19.4499722548
atom         8.7364500000        9.3785300000        6.4374700000 H         0.0000000000         0.0000000000        -3.1318864011      -28.4233390214       70.2621116425
atom         0.7034500000        1.1242500000        2.0910200000 H         0.0000000000         0.0000000000        67.9407944556       17.0298800427       31.5006306342
atom         1.0805600000        0.2222600000       10.9995000000 H         0.0000000000         0.0000000000      -103.4023800598      113.2914949297       21.5317485292
atom         5.0234300000        8.6081300000        9.4611600000 H         0.0000000000         0.0000000000       -51.9575137186     -102.1154891524       39.5014389562
atom         5.6409700000        5.4884700000        5.5735600000 H         0.0000000000         0.0000000000        31.6491702242      -47.7080983609        8.0331296087
atom        10.8553000000        2.6994500000        0.1483100000 H         0.0000000000         0.0000000000        86.7343131950     -106.6744721906       78.1887460993
atom        10.6251000000        4.4881500000       12.7537000000 H         0.0000000000         0.0000000000       -88.0355834995      142.6346805291       17.4987857789
atom        10.6322000000        8.3543400000        9.7506900000 H         0.0000000000         0.0000000000      -103.1644210138      -49.3037783410      -10.2032539223
atom         5.7658100000        2.8330300000        7.9025600000 H         0.0000000000         0.0000000000        51.5178743856        4.7090363193       -8.0004364737
atom         6.8605800000        9.4455800000        3.2454400000 H         0.0000000000         0.0000000000        56.6037844533      -68.0079816369      117.5718836923
atom         0.0881200000        1.9489000000        8.8855100000 H         0.0000000000         0.0000000000        61.0633982566       64.2922197197       -9.7392864877
atom         8.0584000000        9.6061100000       10.3964000000 H         0.0000000000         0.0000000000      -102.0081795150     -124.2078098153      -42.7330036670
atom         0.0224000000        1.3251700000        0.0904300000 H         0.0000000000         0.0000000000         7.6429325390       75.9683585105       50.5635371141
atom         2.4347300000        0.9399500000        2.3898700000 H         0.0000000000         0.0000000000       -82.4142146804       12.2399870860       26.1120256129
atom         7.7416100000        9.3921100000        7.5458300000 H         0.0000000000         0.0000000000        -2.2880426366      -15.4434431826        3.6908651310
atom         7.4491000000        2.2087200000        7.9915800000 H         0.0000000000         0.0000000000       -72.7102976346       96.3404405485      -22.5498275593
atom         9.0144600000       10.3769000000        0.1458900000 H         0.0000000000         0.0000000000        59.5391003643      -22.9420922091       30.5052723562
atom         1.2794200000        3.7643600000        1.9601700000 H         0.0000000000         0.0000000000       123.1926486995      101.7679536126       71.4557156773
atom         1.5443800000        3.9138500000        7.0196000000 H         0.0000000000         0.0000000000       -11.5183377594      -16.5104966423      -25.9395877420
atom         7.9589200000        3.0952100000        3.8680600000 H         0.0000000000         0.0000000000        46.2323579239       52.0221751506      100.2918619100
atom         4.7642500000        7.0912100000        3.3700500000 C         0.0000000000         0.0000000000       -36.5047180910       17.7406820249       92.5262822528
atom         3.7350100000        1.8197300000        0.5640400000 C         0.0000000000         0.0000000000      -252.3745972745     -121.3218519382     -105.8461875517
atom         5.1157300000        7.5808800000        7.1676300000 C         0.0000000000         0.0000000000       115.5673729351      123.8742030445       63.0135714227
atom         6.8216600000        0.8562200000        5.4504000000 C         0.0000000000         0.0000000000      -143.1491550480      122.6552895229       -4.4832039530
atom         4.2851800000        6.0712600000       10.9779000000 C         0.0000000000         0.0000000000        55.8466093916       -1.7449066153       28.1040035006
atom         7.2686200000        3.2200200000        1.0211700000 C         0.0000000000         0.0000000000       -51.9997979730      -70.8616616995      -43.2427419544
atom         4.2539100000        4.5936600000        8.3762300000 C         0.0000000000         0.0000000000      -193.8425877132     -116.2582602654       31.1043607986
atom        10.0049000000        0.2121900000        2.3159000000 C         0.0000000000         0.0000000000       -16.6860917772       27.6590745422     -163.4507458567
atom         8.9089400000        0.4710700000        9.4811700000 C         0.0000000000         0.0000000000       207.2704996957       15.4885077037      -45.1918225750
atom        10.0552000000        9.0464700000        4.4377000000 C         0.0000000000         0.0000000000        20.7666921353       38.8830934303      103.7274529154
atom         3.2189600000        1.4650100000       10.0740000000 C         0.0000000000         0.0000000000        -1.7165103204      -82.2176399450      -10.4917230605
atom         7.1956800000        6.1518400000        5.7617400000 C         0.0000000000         0.0000000000       214.3421900898     -251.6629870773        9.0216025483
atom         9.5173200000        8.8356300000       12.4193000000 C         0.0000000000         0.0000000000       -69.9118654816       51.0902278580        0.4205573381
atom         3.9201600000        4.3180600000        0.1236400000 C         0.0000000000         0.0000000000        75.0016052502       19.6781374823       80.1981509593
atom         7.6863600000        5.8081900000        9.7396600000 C         0.0000000000         0.0000000000        28.6444253743       79.5929577625      -73.7864951112
atom        10.8448000000        4.1023900000        3.4207500000 C         0.0000000000         0.0000000000        18.6495529635       20.8335083662       21.0797511240
atom         9.8529200000        6.4019600000        2.6195900000 C         0.0000000000         0.0000000000       285.7541424106      156.2650885629      -30.3051220278
atom         3.4333400000        2.9042500000        5.1316800000 C         0.0000000000         0.0000000000       -78.4138450710      -27.7979451177       -8.8331750313
atom         1.8390300000        8.4026000000        3.4364200000 C         0.0000000000         0.0000000000       -60.2649073373      -32.5548276900      -72.1263443290
atom         7.1154300000        5.8679500000        1.5379500000 C         0.0000000000         0.0000000000       -32.6586192267     -127.8282809998      -20.2799336656
atom         3.7575300000        8.4146200000        0.6101000000 C         0.0000000000         0.0000000000       -45.2159812549      -75.0289684873     -133.3392041620
atom         0.1267000000        9.6948800000        7.6918000000 C         0.0000000000         0.0000000000      -140.0778329166      -52.9123004723      -71.0539831968
atom         0.2102400000        2.9228500000        6.0341800000 C         0.0000000000         0.0000000000       -10.8769665327      -29.0049946201       78.3564771277
atom         1.8835800000        0.8721300000        6.7366400000 C         0.0000000000         0.0000000000       -51.8226685422      -82.8027036216     -137.6120151161
atom         8.0807900000        3.2602000000        1.8539300000 O         0.0000000000         0.0000000000      -114.1605899730        9.1803386017     -125.0637373734
atom         9.3452900000        9.9168900000        4.7028100000 O         0.0000000000         0.0000000000        84.1428215397     -107.6665822945      -52.4868825902
atom         7.2714600000        5.5220800000        0.4458900000 O         0.0000000000         0.0000000000        -7.7457655078       75.3582769225      113.3734319748
atom         4.8658200000        6.1945700000        4.0982100000 O         0.0000000000         0.0000000000       -10.0182065416      129.6571350549     -131.4360580915
atom        10.1189000000        0.3483100000        9.6195900000 O         0.0000000000         0.0000000000      -232.4767948251        7.9152139510      -13.5174992254
atom         9.9655700000        5.3473600000       12.8519000000 O         0.0000000000         0.0000000000        37.9952897762     -218.9285024623      -44.7017231433
atom         5.9272200000        8.3972700000        7.5292600000 O         0.0000000000         0.0000000000      -152.3986523677     -152.6445050775      -75.2215741994
atom         5.8580300000        1.5994000000        5.5600200000 O         0.0000000000         0.0000000000       117.3467182478      -83.4331862914       -7.5969689591
atom         1.3881200000        0.4688700000        5.6706600000 O         0.0000000000         0.0000000000       125.5220215793       96.2624082768      231.0969714083
atom        10.8976000000        8.2903500000        4.5858800000 O         0.0000000000         0.0000000000      -124.6656307536       69.4469936514      -53.5150900362
atom         5.1008300000        5.0026900000        9.1057100000 O         0.0000000000         0.0000000000      -135.5052400300      -60.0598512252     -142.1207167854
atom         9.8070900000        7.8858900000        9.5552800000 O         0.0000000000         0.0000000000         6.5180971859       62.4405148615      143.7280409707
atom         1.3812000000        8.9675600000        4.3650800000 O         0.0000000000         0.0000000000       125.4899428544      -91.8953653375     -168.6287615647
atom         3.4917400000        4.0023300000       12.1597000000 O         0.0000000000         0.0000000000       107.7662722510       76.3669668524      250.9352793029
atom         0.5941800000        2.6875400000        8.6360700000 O         0.0000000000         0.0000000000        78.3532220038      -54.9195615310       62.2794107603
atom         7.6628300000        1.3022700000        4.5568100000 O         0.0000000000         0.0000000000       -35.0559956634     -174.8237959325       22.0455473560
atom         2.7421700000        3.0421600000        4.1375700000 O         0.0000000000         0.0000000000       150.9564198118      -23.7456469793      202.9437184001
atom         5.4480400000        6.0849500000       11.3248000000 O         0.0000000000         0.0000000000      -248.0696905472       -7.2021249471      -63.1399939813
atom         4.6219000000        1.7247300000        1.3552000000 O         0.0000000000         0.0000000000       -78.9463280415       18.1583000851      -86.0806177478
atom         8.4752600000        3.5785100000        4.5113400000 O         0.0000000000         0.0000000000       -63.0614840504      -61.6930609836       17.3917710103
atom        10.5933000000        0.8821900000        3.1615700000 O         0.0000000000         0.0000000000      -107.1091116003     -129.1383185173     -129.5169087919
atom         6.8314600000        5.7206700000        2.6261500000 O         0.0000000000         0.0000000000        30.2417411898       50.8836775420      -96.9511079945
atom         4.4852600000        8.1378900000        2.9437800000 O         0.0000000000         0.0000000000        49.2900446824     -152.3964630396       24.9326724105
atom        10.9660000000        4.7983900000        4.3245300000 O         0.0000000000         0.0000000000       -19.4911142381      -98.0155754768     -115.4980714915
atom         3.9053200000        2.6548400000        6.1792600000 O         0.0000000000         0.0000000000       -81.1003325476       50.1247312904     -194.5906671007
atom         4.2855600000        6.9351000000        6.8390800000 O         0.0000000000         0.0000000000        39.6735847510       16.2039390484       15.5997377277
atom         0.3939600000        0.9828900000       11.0993000000 O         0.0000000000         0.0000000000         7.2629213015     -206.2146016137      -16.7937071565
atom         8.0519000000        0.9883600000        8.9851300000 O         0.0000000000         0.0000000000         2.7456816874      -16.5447771775       35.6470300942
atom         0.3696100000        9.3213500000        8.7511100000 O         0.0000000000         0.0000000000        -6.0764742807       60.2580039529     -130.3184723936
atom         4.5218400000        7.8025200000        9.7196100000 O         0.0000000000         0.0000000000       -76.3402156184      215.8818669715      -92.6025174008
atom         3.8282000000        2.4263000000       10.1063000000 O         0.0000000000         0.0000000000       -78.7712935411     -108.7360352793       -7.7341527314
atom         1.3437000000        2.8591300000       11.3839000000 O         0.0000000000         0.0000000000        -6.2465370485      175.6548232619        6.2902498816
atom         2.0669900000        4.4118700000        2.4344500000 O         0.0000000000         0.0000000000      -157.1215218927        2.0049931658     -162.6866482634
atom         2.0153100000        7.8264600000        2.3493100000 O         0.0000000000         0.0000000000       -28.5657585520      122.3035168613      248.0182547062
atom         6.7430700000       10.4584000000        6.2692900000 O         0.0000000000         0.0000000000        -5.3222641012      -26.3769186255     -116.4456457274
atom        10.8139000000        3.4314500000        2.4952400000 O         0.0000000000         0.0000000000        -3.8019559282       73.8122949061      102.7251852801
atom         3.1427500000        6.0147300000       10.7167000000 O         0.0000000000         0.0000000000       190.3033936324        6.4690000012       48.5208009375
atom         8.9310300000        6.9689400000        3.0290700000 O         0.0000000000         0.0000000000        85.2675950438      -98.5687090853      -56.7239542559
atom         5.5815000000        3.4673300000        3.6205800000 O         0.0000000000         0.0000000000       -77.7517184684     -120.3079895843     -105.6245623904
atom         3.9548400000        7.3048100000       13.0893000000 O         0.0000000000         0.0000000000       -37.8949859192      255.8617669213      170.2842711046
atom         7.2291400000        8.8916600000        4.1423700000 O         0.0000000000         0.0000000000       -26.1350729945       51.6432132186     -137.3686041985
atom        10.8966000000        9.8398300000        6.6650500000 O         0.0000000000         0.0000000000       162.1183606622      -20.2382008741      209.2820257563
atom         3.3353900000        9.4593100000        0.8908800000 O         0.0000000000         0.0000000000        86.1417064275     -168.9460063746      -32.6115522637
atom         2.4000200000        1.0336200000        7.7264300000 O         0.0000000000         0.0000000000       -51.2140012239       -4.0626741719     -113.0942368359
atom        11.4006000000        2.0399100000        0.7017100000 O         0.0000000000         0.0000000000       -89.7166132151       21.9067029377     -139.3640557436
atom         2.7427000000        0.3893300000        9.9290300000 O         0.0000000000         0.0000000000        78.8571390847      180.3921770996       36.0942349108
atom         6.4338800000        2.9640000000        0.1904100000 O         0.0000000000         0.0000000000       178.1793514627       57.3683560376      176.1830978159
atom         7.3054200000        8.8363100000       10.2995000000 O         0.0000000000         0.0000000000        35.2796145966       46.7601224515      -14.1151544882
atom         8.7389300000        1.9703000000       11.8569000000 N         0.0000000000         0.0000000000       109.1361256256      174.6697993402     -175.0127171011
atom         2.7258200000        1.5910600000       13.0359000000 N         0.0000000000         0.0000000000       315.7226227955       80.3171864820      204.6163927189
atom         4.7767700000       10.5787000000       11.7814000000 N         0.0000000000         0.0000000000       180.8472356195      135.5674605310       -2.6039176739
atom         6.4951400000        5.0318700000        5.8128800000 N         0.0000000000         0.0000000000       108.2394732771      355.8110170634      -18.7909162609
atom         9.7170600000        7.5885600000       13.0990000000 N         0.0000000000         0.0000000000        22.3580187053      390.0203574112      -62.5263317946
atom         4.5086900000        4.6504800000        1.3201600000 N         0.0000000000         0.0000000000      -205.2459305744       14.4024653038     -337.3110730001
atom         3.2568100000        4.0718600000        7.9121700000 N         0.0000000000         0.0000000000       204.4235968577       90.7372378301      171.8763851246
atom         9.5785000000       10.3596000000        1.3267500000 N         0.0000000000         0.0000000000        62.5800056903      108.2678744193      222.9531966222
atom         5.1462400000        0.4150800000        8.5790900000 N         0.0000000000         0.0000000000       -51.8468688091      -46.3903516843     -131.5810343774
atom         4.5505400000        9.5362500000        4.5373300000 N         0.0000000000         0.0000000000        -1.3098782657      198.3543243538        7.3131188868
atom         0.5044800000        8.9154000000        1.1578400000 N         0.0000000000         0.0000000000        -1.0544778275      167.7990194064      -35.4120672257
atom         2.2744800000        6.3709900000        4.7855000000 N         0.0000000000         0.0000000000       242.4883013871     -271.2959429639      125.6941372952
atom         1.4740500000        7.2656800000        9.4525600000 N         0.0000000000         0.0000000000       187.0392943601       -8.2051959903     -153.5169195459
atom         6.7593100000        8.4666400000        0.0867000000 N         0.0000000000         0.0000000000      -141.5203009563       79.3478453007      256.2336763590
atom         0.7945700000        5.0617500000        9.8078800000 N         0.0000000000         0.0000000000      -201.2158131749       37.8041163884       98.1330086670
atom         1.1957300000        5.1769000000       12.9305000000 N         0.0000000000         0.0000000000       113.4572965631      190.3972704393      157.3820583419
atom         5.8837600000        3.0514900000       11.0274000000 N         0.0000000000         0.0000000000       121.8804728140      174.7705863365       24.4728824743
atom         4.4559400000        0.0546000000        4.4176500000 N         0.0000000000         0.0000000000        10.4197220188     -184.5248233291       15.2223250705
atom         2.2645100000        9.2992200000        7.1277200000 N         0.0000000000         0.0000000000       120.6708702701     -137.5757982676     -150.5222210347
atom         8.3979100000        6.4879000000        5.6977600000 N         0.0000000000         0.0000000000      -308.4909280730       15.5258343845       -3.7878796249
atom         9.2751700000        9.9497400000       12.0015000000 N         0.0000000000         0.0000000000        69.9492096410     -353.9036335431      168.2824348709
atom         9.8471800000        3.8912300000        8.3089600000 N         0.0000000000         0.0000000000       -64.7499298519      278.1837984339      -70.2976595445
atom        10.7247000000        2.0870600000        6.0467000000 N         0.0000000000         0.0000000000       243.5852660996      172.9201839631      -51.1744139860
atom         0.5865000000        6.9305500000        6.3538400000 N         0.0000000000         0.0000000000      -291.1118809555     -141.7801134119     -177.5870993774
atom         9.1808200000        2.6855900000       11.0972000000 N         0.0000000000         0.0000000000      -100.8176205975     -169.4086019530      183.7546964678
atom         8.6685700000        9.3751900000        7.4331500000 N         0.0000000000         0.0000000000        35.8571254714       -1.6412991968       18.8768033202
atom         7.4171700000        5.6584200000        8.5910100000 N         0.0000000000         0.0000000000        65.7072877427        6.0565023130      343.0023330099
atom         8.1104600000        6.1963200000       10.9057000000 N         0.0000000000         0.0000000000      -106.7446970207      -78.1462161701     -259.7195383976
atom         1.8078400000        8.7808400000       11.9940000000 N         0.0000000000         0.0000000000      -222.9245410204     -156.5154143599     -223.6534352757
atom         7.0684800000        0.8390900000        2.0657800000 N         0.0000000000         0.0000000000      -226.5353284575     -163.4949128067      103.9041817790
atom         0.5708700000        9.9987900000        0.9808100000 N         0.0000000000         0.0000000000        -5.7861128628     -158.8277039118       31.7486542952
atom        11.2302000000        5.3088000000       10.2757000000 N         0.0000000000         0.0000000000       201.6479778822      -56.6949824453      -86.8473782391
atom         4.7630100000        0.0608700000        7.6186800000 N         0.0000000000         0.0000000000        56.5783879072       49.0666053348      132.1465374007
atom         1.0344800000        8.2582700000       11.2803000000 N         0.0000000000         0.0000000000       213.8384684163      171.3415028726      230.8201861876
atom         1.0536800000        3.7465400000        6.1942700000 N         0.0000000000         0.0000000000      -207.3090810567     -194.7325225767      -29.1556836033
atom         3.0169100000        5.5349400000        5.2066600000 N         0.0000000000         0.0000000000      -246.3853056868      266.5081499944     -136.3653715663
atom         2.3918900000        7.2299400000        8.8167000000 N         0.0000000000         0.0000000000      -181.2292410145       18.9076760169      126.4253434257
atom         6.2111400000        8.7695100000        1.0527900000 N         0.0000000000         0.0000000000       145.8512212729      -87.2554184941     -262.8843447828
atom         6.2023200000        0.1917700000        2.4537600000 N         0.0000000000         0.0000000000       237.0841856476      157.5286386216      -90.8235546043
atom         1.6801100000        5.9497700000        0.4735900000 N         0.0000000000         0.0000000000      -120.1381028793     -207.1690500429     -158.1938833012
atom         6.4936200000        3.9488200000       11.2634000000 N         0.0000000000         0.0000000000      -113.1160733450     -169.4120472862      -49.6989827016
atom         9.6352900000        4.9906300000        8.0485500000 N         0.0000000000         0.0000000000        62.4260057696     -286.1262489274       62.5522649059
atom         2.8558000000        8.6533600000        6.4294900000 N         0.0000000000         0.0000000000      -129.3177254947      143.2268081710      143.2332405902
atom        11.1011000000        6.4631600000        2.2328100000 N         0.0000000000         0.0000000000      -284.7659878441      -14.0521334846      154.7140634357
atom         1.4901500000        1.1898800000        2.7704900000 N         0.0000000000         0.0000000000        50.5375773938        9.7583601395     -118.2592759305
atom         5.6739900000        0.6651200000       11.7735000000 N         0.0000000000         0.0000000000      -178.7408230550     -143.7597577775        4.5646940614
atom         6.7211400000        3.0846300000        7.8390500000 N         0.0000000000         0.0000000000        29.1650142454      -68.4199567127      173.5885952592
atom        11.0815000000        6.4911900000        5.7627200000 N         0.0000000000         0.0000000000       283.9478019678      143.2122327701      200.7109969741
energy    -32372.7455540299
charge 0
end
begin
comment generated by PY
lattice        11.4200000000         0.0000000000         0.0000000000
lattice         0.0000000000        10.5800000000         0.0000000000
lattice         0.0000000000         0.0000000000        13.1400000000
atom         7.6637800000        8.5924600000        3.0389900000 H         0.0000000000         0.0000000000        -3.5451808046      -14.7104580176       68.8536287149
atom         8.7707300000       10.5543500000        6.4180200000 H         0.0000000000         0.0000000000       -36.4931114127      -71.2600289694       16.2644783771
atom         9.4813200000        5.4067300000        4.4057600000 H         0.0000000000         0.0000000000       -81.3401621011       53.6777637842       66.8936593306
atom         4.0926000000        8.5941000000        7.9508300000 H         0.0000000000         0.0000000000        -8.5685559847      -73.4617827486      102.1692337253