begin
comment generated by PY
lattice        11.4200000000         0.0000000000         0.0000000000
lattice         0.0000000000        10.5800000000         0.0000000000
lattice         0.0000000000         0.0000000000        13.1400000000
atom         0.4080500000        2.7880100000        3.2854000000 H         0.0000000000         0.0000000000         5.8920057211      -15.4841625490       53.8500328833
atom         7.7258100000       10.3587000000        4.9406000000 H         0.0000000000         0.0000000000         1.0891836278      -41.5645289386      134.5911633970
atom        11.2685000000        4.1204100000        1.9421100000 H         0.0000000000         0.0000000000       -63.2417475323      -87.6885265739      -41.5804124379
atom         0.5945500000        0.7443400000        4.7280000000 H         0.0000000000         0.0000000000       -38.9016802967      -67.3003734859      -28.7953397567
atom         5.4627700000        2.0720900000        8.9189800000 H         0.0000000000         0.0000000000        50.9962850866       52.7081380977       74.9234288952
atom         3.6952700000        1.1154000000       11.6654000000 H         0.0000000000         0.0000000000         4.2238997281       53.8541174028       -6.9146364621
atom         4.9734400000        1.0659100000        4.7858500000 H         0.0000000000         0.0000000000        41.9012402684      -17.4422172012      118.9484232054
atom         6.6970300000        8.5083200000       10.1195000000 H         0.0000000000         0.0000000000        -1.4456471113      -19.7747944582      -11.1214368011
atom         4.9807100000        3.5545900000       12.3818000000 H         0.0000000000         0.0000000000      -108.5234211720       -0.0215212044       14.8863943800
atom         5.2284400000        5.8158300000        7.5248000000 H         0.0000000000         0.0000000000         5.5996057738      -93.1877507557      -51.6039012262
atom         9.7668400000        0.6333300000        3.7603900000 H         0.0000000000         0.0000000000       -59.9582728096       32.9725969931        8.4691303450
atom         3.9585800000        3.3655100000        7.4903800000 H         0.0000000000         0.0000000000        -4.6549356867        8.1962377375        5.1157255917
atom         2.8144300000        6.2646200000        9.1804600000 H         0.0000000000         0.0000000000        16.0698008081        6.7357112118       34.5511102577
atom         1.4336100000        5.9840700000        0.0284000000 H         0.0000000000         0.0000000000        62.4230975347      -55.2397011569       60.4405552393
atom         2.1386500000        3.5782900000        9.7459100000 H         0.0000000000         0.0000000000        79.4869083288       58.2123249568      -61.2054865587
atom         0.7546100000        2.5180800000        4.8105400000 H         0.0000000000         0.0000000000       -52.1607668851      -17.9266532035     -118.4139864209
atom         0.8321100000        6.9808600000        6.0861800000 H         0.0000000000         0.0000000000        12.4712069408       67.2213048952      -49.7350469375
atom         9.8152600000       10.3356000000        8.5619800000 H         0.0000000000         0.0000000000       -86.9749687482        6.4493263965        7.1013199375
atom         6.6850500000        0.5886000000        1.0616200000 H         0.0000000000         0.0000000000       -20.7526886723       44.1145967451      -10.1628995223
atom         8.5495800000        0.8896700000        8.8223200000 H         0.0000000000         0.0000000000        29.3887964659      -98.5542373803       -8.6329227773
atom         5.0604900000        0.3212300000        6.2817400000 H         0.0000000000         0.0000000000        53.6233104553       92.1109208703      -97.7830830752
atom        10.7223000000        3.5568800000        8.5528200000 H         0.0000000000         0.0000000000       -24.6313081987      -49.3801908821       80.2619929598
atom         2.6120300000        2.8229600000        2.7830100000 H         0.0000000000         0.0000000000       -15.4321869765       58.5440953683       70.0040669202
atom         3.7186900000        3.3136900000        6.0431500000 H         0.0000000000         0.0000000000       -39.0775631456      -29.0582572120       78.2386373090
atom         6.2097500000        8.0419500000       11.7850000000 H         0.0000000000         0.0000000000        46.2104297757       36.3876653848      -65.0567651536
atom         8.0950800000        9.8228300000        8.5850700000 H         0.0000000000         0.0000000000        75.4191867416       62.3048427975       17.1346854207
atom         7.9730400000        7.5994900000        7.8260500000 H         0.0000000000         0.0000000000         2.8901970343       -3.3338544813       -2.1332467024
atom         9.9558100000        3.1585500000        1.3429700000 H         0.0000000000         0.0000000000       119.5413525253       34.2970324981       34.3643567776
atom         2.4172800000        3.0546500000        7.1794800000 H         0.0000000000         0.0000000000       126.8584929854       -8.5420100557      -36.6576902184
atom         6.4149200000        9.7041900000       11.2307000000 H         0.0000000000         0.0000000000        17.5485342497      -70.8903843259      -14.6621033272
atom         3.3458400000        2.8242000000       11.1645000000 H         0.0000000000         0.0000000000        70.0698941908     -115.0549499062      -78.2041044811
atom         0.5896400000       10.5076000000        3.6443400000 H         0.0000000000         0.0000000000       -48.6023349598       -1.5636103983      133.1957347891
atom         2.5958300000        7.1478900000       10.5703000000 H         0.0000000000         0.0000000000        57.9796970773      -47.5849383293      -56.4165257077
atom         3.9907400000        6.0270800000       10.3992000000 H         0.0000000000         0.0000000000       -34.3093032087       25.9403492872      -42.2910115433
atom         4.0970200000        3.3544500000        0.3689800000 H         0.0000000000         0.0000000000         5.6347611683        4.2478841744      -47.8294092048
atom         2.9160600000        3.7204100000        8.3566300000 H         0.0000000000         0.0000000000       -22.4687997363       53.8068536811      121.9664187753
atom         5.0279400000        4.8214000000        5.1144300000 H         0.0000000000         0.0000000000        22.9899605210      -94.7082535125      -11.5268169232
atom         2.6923300000        4.9585200000        0.9225100000 H         0.0000000000         0.0000000000       -42.9842544343       22.6412747266       -8.8589158129
atom         7.5954400000        6.3629400000       12.7541000000 H         0.0000000000         0.0000000000       -55.0241822332      -93.5731167495      -47.0347126264
atom         0.3960300000        7.9769600000        4.9504700000 H         0.0000000000         0.0000000000       107.0444033551      -45.4583922152      121.6126501370
atom         5.6940800000        5.1115500000        6.3595600000 H         0.0000000000         0.0000000000       -10.3715504124       -0.9697683729       22.2782676437
atom         7.8462700000        8.9242600000       11.2784000000 H         0.0000000000         0.0000000000       -97.8208847239      -31.4725545390      -10.6269313109
atom         9.7224500000        3.0674600000        9.6992500000 H         0.0000000000         0.0000000000       141.7081427129      -11.2325148499      -78.6593740532
atom         6.0686100000        3.9274400000        4.6065600000 H         0.0000000000         0.0000000000       -85.9478726675       10.9855486734       41.3025451053
atom         3.9501200000        7.8725500000        7.2255200000 H         0.0000000000         0.0000000000        36.9236766423      -48.5878145956      128.6231222804
atom         3.2103800000        4.0136800000        3.5226500000 H         0.0000000000         0.0000000000      -118.8711995984     -111.5511012320       -3.6373298610
atom         6.8100500000        2.7184400000       10.2967000000 H         0.0000000000         0.0000000000       -61.2374176763      -13.1599298565      -75.0461259419
atom         5.8108800000        2.1063100000        6.8575600000 H         0.0000000000         0.0000000000       111.0396563642       79.8611111269       -8.0317718250
atom         3.2347200000       10.5494900000        2.5989300000 C         0.0000000000         0.0000000000       -54.2216789931      141.1434525530       29.3375057672
atom         3.3136300000       10.1366000000       12.0945000000 C         0.0000000000         0.0000000000        15.5152254921      115.9637076962      146.7032534897
atom         4.2661100000        5.9241000000        0.4966300000 C         0.0000000000         0.0000000000        -5.4356917917      -17.2838617589      -38.2411980119
atom         2.6973200000       10.0503000000        6.1764800000 C         0.0000000000         0.0000000000       107.2474168638      -29.8370354123       25.8355245993
atom        10.1313000000        6.0007500000        0.5231500000 C         0.0000000000         0.0000000000       -48.6853475672       11.8712902396      -10.9451383564
atom         5.5156200000        2.5883300000        2.6330300000 C         0.0000000000         0.0000000000       -72.3517849011      -15.8617366441        5.4329561863
atom         7.0389800000        9.9209100000        6.8131600000 C         0.0000000000         0.0000000000      -166.2042332295      107.3782417062      146.3731037258
atom         7.6088000000        4.3933800000       12.0265000000 C         0.0000000000         0.0000000000       -51.3881135765     -159.5359378597     -180.6279437904
atom         0.1480300000        1.5557400000        7.3676700000 C         0.0000000000         0.0000000000       -14.5684373361      -42.6662391837       -4.5454896185
atom         4.0506200000        8.5523900000        0.5713300000 C         0.0000000000         0.0000000000        91.5174793823      -42.7296232646      140.2646896030
atom         8.3293400000        5.4529600000        6.5474900000 C         0.0000000000         0.0000000000       -42.1192579460      -43.7799299076       62.3442041787
atom         8.9031600000        2.2705600000        4.1768800000 C         0.0000000000         0.0000000000      -136.3344550871      205.8911895789      146.4336539684
atom         1.1152500000        5.7774600000        1.8914000000 C         0.0000000000         0.0000000000       -63.5262708906     -251.6606170379       80.8081412950
atom         7.6891100000        1.9995900000        6.5647900000 C         0.0000000000         0.0000000000       216.1982857120        3.6095837522       52.6039047380
atom         7.2369900000        6.0959200000        8.7882000000 C         0.0000000000         0.0000000000       108.5822705437      -57.3229184684      104.9471975527
atom         7.6539400000        3.4205200000        1.8060000000 C         0.0000000000         0.0000000000        94.8652314300       85.6410142948      -51.8998028431
atom         5.9292900000        1.0348200000       12.5357000000 C         0.0000000000         0.0000000000        58.8541218374     -154.6643676962     -322.3310281095
atom         4.9250600000        8.1516200000        5.2336000000 C         0.0000000000         0.0000000000        64.2588270040       17.8518506995      -28.9161420064
atom         2.8006100000        0.6928800000        9.1919000000 C         0.0000000000         0.0000000000        62.0075897061       54.8313164413        5.8073334416
atom         3.9310200000        7.9087600000        9.2677300000 C         0.0000000000         0.0000000000       -69.3488201085       -2.8106302936      -10.1927190987
atom         1.6729100000        2.5934500000        0.1232100000 C         0.0000000000         0.0000000000       -39.3035602470       70.9297757812       47.3772617698
atom         0.2829300000        4.5111800000       11.2416000000 C         0.0000000000         0.0000000000      -212.6180540476       -5.0197103391       29.5838270784
atom         5.3617400000        3.7502900000       10.1006000000 C         0.0000000000         0.0000000000        62.2407202528       66.8919299509       33.0851184376
atom         2.8351300000        7.3674900000        3.5434000000 C         0.0000000000         0.0000000000       -17.8414181301      -35.3215861342      -57.7128124665
atom         4.5279900000        2.9829400000        2.0939100000 O         0.0000000000         0.0000000000       201.4820439174      -72.6328519077       96.2865790482
atom         3.1486600000        8.3389800000        1.3097800000 O         0.0000000000         0.0000000000       117.3415491828       42.0457373186     -156.8416877754
atom         8.9167600000        1.0450700000        3.8443500000 O         0.0000000000         0.0000000000        62.5255876779       89.6089714491       22.2514700081
atom         2.1867200000        0.3938600000        2.8600900000 O         0.0000000000         0.0000000000       118.3804923886      -87.9992380483      -44.9724328009
atom         0.5011100000        2.3188200000        6.5605700000 O         0.0000000000         0.0000000000       -41.3114863339     -108.9890084882      131.3514934332
atom        10.9216000000        3.2895500000        1.4646900000 O         0.0000000000         0.0000000000       -44.2472108702       59.1718958257       25.9336348461
atom         4.1938700000        6.3648800000       12.5402000000 O         0.0000000000         0.0000000000        12.6101256935      -71.0115371172      208.5063846514
atom         3.3984500000        9.1478400000        6.4594500000 O         0.0000000000         0.0000000000      -115.2541831389      109.9705808782      -37.0083962780
atom         2.5664800000        8.5422300000        3.4004900000 O         0.0000000000         0.0000000000        59.4251528406     -241.5134614550       57.1138322300
atom         5.2539800000        8.5657800000        0.4806800000 O         0.0000000000         0.0000000000      -204.4537782662       12.1663773382      -13.9849113229
atom         7.8369900000        9.9574800000        5.8852900000 O         0.0000000000         0.0000000000       -61.0442162414        8.8914034528      -34.3393062226
atom         2.4258200000        3.3457700000        3.5294400000 O         0.0000000000         0.0000000000       135.3335161755       66.5830682935      -54.1441908991
atom         1.8380700000        0.7205400000        9.8422900000 O         0.0000000000         0.0000000000       123.5295249547      -29.3290036083     -104.3579163165
atom         6.7234000000        2.7624100000        6.9438400000 O         0.0000000000         0.0000000000       -12.1434679356     -178.4688518892      -63.3686465303
atom         0.2727500000       10.4624000000        4.5861000000 O         0.0000000000         0.0000000000        60.2822671696       56.0547221583     -116.1930456563
atom         2.3292700000        0.4907700000        5.9198300000 O         0.0000000000         0.0000000000        11.6154659038      -86.4559007020       23.3270466419
atom         5.5811400000        9.1503000000        5.1347700000 O         0.0000000000         0.0000000000      -137.7778744018     -209.9277347667        9.1289070352
atom         9.2780400000        5.2401100000        0.6527400000 O         0.0000000000         0.0000000000       115.3753888624       98.3722820074      -13.5606112971
atom         3.7692800000        2.0785000000       10.6061000000 O         0.0000000000         0.0000000000       -69.0611297865       61.5069094437      119.1059700974
atom         4.2303900000        7.3481000000        8.1053700000 O         0.0000000000         0.0000000000       -55.3615679783      119.5551681176       -4.8258132741
atom         6.9712500000        5.6582400000       12.4155000000 O         0.0000000000         0.0000000000       145.3832706140      -84.1014603499       -6.3776418760
atom         3.9175400000        9.0747400000        9.6384900000 O         0.0000000000         0.0000000000        11.7865283611     -226.5498850379      -77.9169664228
atom         4.3380500000        0.0932000000        2.3974700000 O         0.0000000000         0.0000000000       -62.5966271559      -50.6003622494        8.4091072927
atom         8.3519100000        2.7272500000        1.1473100000 O         0.0000000000         0.0000000000      -127.1491142028       84.7861138908      116.2219438233
atom         4.4091700000        7.0905500000        5.2347300000 O         0.0000000000         0.0000000000        82.5087865141      181.6306455659        8.9596781183
atom         4.3267400000        5.4285600000        1.5611800000 O         0.0000000000         0.0000000000         8.7861497783       93.0580760706     -173.1817423946
atom         3.0263100000        9.0307400000       11.7285000000 O         0.0000000000         0.0000000000        46.1579822756      157.8914084427       67.4517271334
atom        11.2383000000        0.7080800000        8.0903200000 O         0.0000000000         0.0000000000        66.8609317848      132.6625407559     -116.3647650064
atom         0.9567700000        5.4361800000       11.1051000000 O         0.0000000000         0.0000000000       -63.0328133824     -122.9355474627       11.3326981108
atom         5.1767300000        3.9227200000        4.9064300000 O         0.0000000000         0.0000000000        70.4861043174       84.9916241281      -31.9083714716
atom         9.0423500000        5.0070400000        7.2994900000 O         0.0000000000         0.0000000000       -46.8615540301       45.6185726407      -94.2207872724
atom         4.0655200000        3.5388000000       12.6297000000 O         0.0000000000         0.0000000000        92.1670892059        6.4897760904       39.9712237456
atom        10.6603000000        2.9394900000        9.2656200000 O         0.0000000000         0.0000000000      -119.0584329671       68.5125255794      -18.6339537115
atom         3.7996700000        0.7581400000        8.5534700000 O         0.0000000000         0.0000000000      -188.4066296013      -31.6993909515       93.3558933537
atom         5.4555400000        0.9787700000        5.6180100000 O         0.0000000000         0.0000000000       -88.5668099296      -58.5204810194        0.6428047994
atom         7.2643000000        4.4332300000        2.2502200000 O         0.0000000000         0.0000000000        33.9286576674     -171.9768113959      -63.6434260203
atom        10.8331000000        6.8828600000        0.3318000000 O         0.0000000000         0.0000000000       -69.5921247217     -101.9868048237       20.6977082862
atom         5.9541500000        1.3526700000        0.5431900000 O         0.0000000000         0.0000000000        55.3679943477      -76.9044958238      -10.5975402771
atom         2.7387000000        4.1724700000        9.3018800000 O         0.0000000000         0.0000000000       -53.0884817946     -110.4945646090      -97.8576630784
atom         1.4058500000        3.0325300000       12.2535000000 O         0.0000000000         0.0000000000        32.1000224331      -63.9779894018       71.3434609797
atom         0.3629200000        2.2093700000        3.9787500000 O         0.0000000000         0.0000000000        23.5435032748       43.0366079049       59.4266723094
atom        10.6174000000        3.8822600000       11.3938000000 O         0.0000000000         0.0000000000       263.2023045187      150.6018869179      -20.5300515071
atom         1.7294300000        2.4827500000        1.2562500000 O         0.0000000000         0.0000000000        18.6697657547      -20.2443605749     -128.3236299522
atom         3.0572800000        6.1639000000        3.4479700000 O         0.0000000000         0.0000000000       -49.9570259315      275.2459539631       26.8048486561
atom         5.2394000000        4.9706500000        7.0959600000 O         0.0000000000         0.0000000000        -7.4637057111       94.8966549408       37.9007857101
atom         7.3957600000        5.7688400000        5.9963500000 O         0.0000000000         0.0000000000        84.3180130377       -8.3311170744       16.2796984691
atom         6.3760700000        2.0798200000        3.2434500000 O         0.0000000000         0.0000000000      -129.2104735167       76.5144057227     -106.4500708300
atom         1.1274100000        7.7646400000        5.6664000000 O         0.0000000000         0.0000000000      -123.3528423807      -32.4493785195      -69.8662179809
atom         9.9864600000        9.4531800000       12.4388000000 N         0.0000000000         0.0000000000      -258.4330616499       71.3396020354     -219.9221080571
atom         3.5574500000        0.5869100000       12.6609000000 N         0.0000000000         0.0000000000       -60.7635885998     -276.3907156066     -213.3586761783
atom        10.2902000000        8.9386600000        2.2989000000 N         0.0000000000         0.0000000000       -78.2170327889      103.8041586768      213.2476015596
atom         8.5075700000        3.2601000000        4.6681500000 N         0.0000000000         0.0000000000       135.6720067252     -320.0971216986     -190.0790413431
atom         1.8671500000        5.4901900000        0.8446300000 N         0.0000000000         0.0000000000      -179.2364312408      117.3656819478      137.7242691671
atom         8.7593900000        1.6286600000        6.4724400000 N         0.0000000000         0.0000000000      -312.1398626572       87.7289300090       23.9778536748
atom         6.2702400000       10.1208000000        7.6505500000 N         0.0000000000         0.0000000000       231.5660246320      -71.1187222941     -255.6620104246
atom         7.7468300000        3.3951600000       11.4045000000 N         0.0000000000         0.0000000000       -48.9203746425      340.6058651173      219.7855676313
atom         0.9639300000        9.8173500000        0.4922300000 N         0.0000000000         0.0000000000        68.6705644060      129.3800361508     -234.4563049726
atom         8.0208700000        8.4937300000        0.6812500000 N         0.0000000000         0.0000000000       -13.3105656551      -85.5879751648       40.9744552626
atom         9.9393800000        9.0384900000        7.0858200000 N         0.0000000000         0.0000000000      -134.6910542174     -188.3641670693      -65.1496334766
atom         6.4530000000        6.5539100000        3.2748500000 N         0.0000000000         0.0000000000      -111.9063534180      115.3568699942      -28.6435704939
atom         8.7698300000        6.8496000000        4.2882800000 N         0.0000000000         0.0000000000        13.4689600465     -168.5856847078     -188.0700289416
atom         0.3411600000        8.2528900000       11.2909000000 N         0.0000000000         0.0000000000      -170.6489953941      137.2733570312     -334.7442069020
atom         1.0065000000        7.7587500000        8.1976900000 N         0.0000000000         0.0000000000       134.2447753810      272.3723554554        7.8991545907
atom         9.8751000000        1.4815000000       11.6811000000 N         0.0000000000         0.0000000000       271.5588824504      -18.7179696703     -184.9067850868
atom         1.9297300000        5.1728200000        6.2782800000 N         0.0000000000         0.0000000000        42.5059382651       12.9100712883       16.6852676478
atom         7.9503800000        7.6106400000        1.2972100000 N         0.0000000000         0.0000000000         9.6561185576       64.3879423708      -68.2842780812
atom        11.2983000000        5.5070500000        8.4343200000 N         0.0000000000         0.0000000000        75.7095540872     -100.0063384892       16.5415029887
atom         3.2980800000        6.7614400000        9.8863800000 N         0.0000000000         0.0000000000        57.8979987927      139.6168424038       14.8139866888
atom         0.4411800000        5.3930300000        2.7807500000 N         0.0000000000         0.0000000000       203.0596701899      139.4476131550     -283.3364679731
atom        10.9926000000        4.1006200000        5.6340300000 N         0.0000000000         0.0000000000       -12.4391161458      210.2231020318      -32.1530447894
atom         5.1344100000        4.7245000000       10.6586000000 N         0.0000000000         0.0000000000        32.5676153750     -262.2258098493     -158.7594959130
atom        10.9589000000        0.9359500000        1.2033000000 N         0.0000000000         0.0000000000      -204.2282796747      -45.7529306874       91.2433326392
atom         9.1334400000        9.6943300000       11.6748000000 N         0.0000000000         0.0000000000       220.8205046408      -83.0484153465      216.7090076328
atom         3.4525800000        2.8253900000        6.9098000000 N         0.0000000000         0.0000000000       -84.0605978696       44.9720123199      -27.1411006337
atom         7.3470100000        5.0011300000        9.2608200000 N         0.0000000000         0.0000000000       -39.9065305410      337.7857624285     -152.6281241748
atom         7.3992500000        7.3241700000        8.5362900000 N         0.0000000000         0.0000000000       -55.8582419654     -254.6439256950       63.0351282206
atom         9.1599300000        6.9161600000       11.4375000000 N         0.0000000000         0.0000000000        50.4902402601      -88.3068647374     -154.4886924371
atom         7.5995900000       10.4847000000        1.9146000000 N         0.0000000000         0.0000000000      -145.2845768853     -127.7040065510      138.9049619492
atom         9.2988000000        8.1684100000        6.7769500000 N         0.0000000000         0.0000000000       134.4261324041      185.1327124057       73.4897463979
atom         1.4498600000        8.8042900000        8.2549700000 N         0.0000000000         0.0000000000      -105.3188306230     -258.3328264852      -17.2439186156
atom         1.2196800000       10.3546000000       12.6639000000 N         0.0000000000         0.0000000000       -59.7633646420     -134.7995634447      234.1482409400
atom         9.5180900000        6.4347900000       10.5080000000 N         0.0000000000         0.0000000000       -71.7971224454       80.7002422883      168.7465538065
atom         5.9716300000        2.7452200000        9.5398600000 N         0.0000000000         0.0000000000       -98.3435449898      181.2214036187      133.1737306065
atom         5.7980900000        7.3977600000        3.0417500000 N         0.0000000000         0.0000000000        85.2473693814     -117.5922187548       33.0429392098
atom         8.7881400000        6.0937800000        3.4552700000 N         0.0000000000         0.0000000000         9.7554346569      169.0036627699      188.1976549048
atom        11.2165000000        8.6839300000       10.3038000000 N         0.0000000000         0.0000000000       185.1982342120     -143.3921464542      323.5545861247
atom         7.1733300000        9.7789800000        2.7124700000 N         0.0000000000         0.0000000000        95.3287239288      165.0773561714     -156.3094855264
atom        10.8334000000        1.3959600000       11.0387000000 N         0.0000000000         0.0000000000      -272.3106958372       23.2684202291      178.5736852211
atom         2.7072700000        5.7714200000        6.6879900000 N         0.0000000000         0.0000000000       -23.9684241493      -14.4387709591       -6.8757387832
atom        10.9983000000        5.2043200000        5.5433100000 N         0.0000000000         0.0000000000        -1.0738068570     -197.7307355483       17.7281522329
atom        10.5866000000        6.2414700000        8.2920500000 N         0.0000000000         0.0000000000       -77.6169500066       77.7975819770      -17.4794053429
atom         6.0655300000        0.5900900000       11.4336000000 N         0.0000000000         0.0000000000       -37.5882418673      127.2117641534      371.1337576990
atom         6.7370300000        8.5714800000       11.0715000000 N         0.0000000000         0.0000000000        60.0034460053      126.0129219093       98.5791377438
atom         9.9096800000        9.4472300000        3.2266600000 N         0.0000000000         0.0000000000        83.6476476714     -112.2339535345     -193.5741129725
atom         8.8526900000       10.4777000000        8.8702000000 N         0.0000000000         0.0000000000       -30.0329418677       12.2055299581       -5.3288684468
atom         9.9689000000        0.6219500000        1.6147100000 N         0.0000000000         0.0000000000       203.2154365574       79.3096106913      -86.4134014480
energy    -32649.2689606357
charge 0
end
begin
comment generated by PY
lattice        11.4200000000         0.0000000000         0.0000000000
lattice         0.0000000000        10.5800000000         0.0000000000
lattice         0.0000000000         0.0000000000        13.1400000000
atom         1.9121500000        3.0811200000        5.8304300000 H         0.0000000000         0.0000000000         2.0660939596      135.2733907664      -25.2809254372
atom         9.1200000000        2.7847100000        4.6995900000 H         0.0000000000         0.0000000000        35.1609389288      -56.8730192653       36.3855042741
atom        10.8517000000        2.3538300000        1.1664500000 H         0.0000000000         0.0000000000        10.8195854611      110.4244643768      102.3687055249
atom        11.0774000000        0.7501800000        3.5413000000 H         0.0000000000         0.0000000000        32.7026761364        4.4533789442      136.8040149290