begin
comment generated by PY
lattice        11.4200000000         0.0000000000         0.0000000000
lattice         0.0000000000        10.5800000000         0.0000000000
lattice         0.0000000000         0.0000000000        13.1400000000
atom         5.7591300000        9.7326800000       13.0181800000 H         0.0000000000         0.0000000000      -144.7211692106       21.0506832859      -14.1009495562
atom         0.1219200000        6.8792700000        8.2631000000 H         0.0000000000         0.0000000000        16.3458600885       -8.2884238386      -10.1920202606
atom         2.7900300000        8.2151900000        2.2907700000 H         0.0000000000         0.0000000000         1.7364437713       -4.2836376220       -3.1002197009
atom         3.9391100000        4.8486900000        5.2772100000 H         0.0000000000         0.0000000000        11.7293942784      -29.8680387273       84.7622640993
atom         4.4408600000        8.8274800000       12.5476000000 H         0.0000000000         0.0000000000        10.3668479096       52.3906556234       31.9268151264
atom         4.1059100000        8.8846300000        3.4311600000 H         0.0000000000         0.0000000000      -107.6566433474       37.5088948446      126.3359341649
atom         3.6228200000        7.5274100000        1.0709400000 H         0.0000000000         0.0000000000      -100.0744249248      100.5014683176       10.6955216337
atom         8.5363200000        8.4732800000        4.2491400000 H         0.0000000000         0.0000000000       -32.7779679892       44.5616198092       66.2587091701
atom         3.9378300000       10.0084000000       10.1341000000 H         0.0000000000         0.0000000000       101.5268558633       74.1190473973      -29.3648534453
atom        10.4024000000        5.4254000000        0.7614800000 H         0.0000000000         0.0000000000       -68.6514558814      -47.1230289258       89.9849255117
atom         8.5115200000        2.7063700000        2.7227600000 H         0.0000000000         0.0000000000        -7.2389714203       44.1068669289      -31.7415634106
atom         3.6431800000        1.4132900000        8.7181200000 H         0.0000000000         0.0000000000       112.2797483069      -16.4931616465       15.0028451345
atom        10.0795000000        3.4345300000        1.4284200000 H         0.0000000000         0.0000000000      -101.5085590756       52.4566074444       28.7704500686
atom         0.7262200000        9.5733600000       10.0692000000 H         0.0000000000         0.0000000000       -27.3003860968      -30.7631612301      119.1419878261
atom         0.8018400000        5.6227600000        5.7092000000 H         0.0000000000         0.0000000000       -91.3389253612       25.8393354953      -10.2692892485
atom         0.7694200000        5.6377000000        3.8529700000 H         0.0000000000         0.0000000000       -39.3438830118        4.9094378888      -56.1982790731
atom         5.1169900000        9.1726400000        6.2399200000 H         0.0000000000         0.0000000000        32.2060922677       86.0750337785       22.2953713549
atom        10.6055000000        3.6858100000       11.3385000000 H         0.0000000000         0.0000000000       -41.6931011377       43.0634448096      115.1409013335
atom         2.6557500000        3.2795900000        1.7854300000 H         0.0000000000         0.0000000000       -30.4605818186      -24.5849778389       18.9823728646
atom         1.9168400000        7.3164700000        4.8033300000 H         0.0000000000         0.0000000000       -52.4350867906       79.3713763402     -135.2495280617
atom        10.0399000000        8.1438400000        9.9131300000 H         0.0000000000         0.0000000000        55.2532281857       91.7183739272     -108.5436659614
atom         7.1179100000        8.5622300000        4.8403200000 H         0.0000000000         0.0000000000        39.5552178510       86.2574423686       -5.6903416507
atom         9.5232400000        8.9711500000        8.8355100000 H         0.0000000000         0.0000000000       104.5277602148      -21.1558636314       39.1085558010
atom         3.4898100000        8.4336400000        4.8172900000 H         0.0000000000         0.0000000000        -2.2001346763       67.5729145862      -66.8808810650
atom         8.5563200000        1.9219300000        1.6514600000 H         0.0000000000         0.0000000000        -5.2723964350       77.7101042947      -14.0464111262
atom         1.2429700000        1.3303200000        1.1104100000 H         0.0000000000         0.0000000000        59.2852039143      -28.3778549570      -64.5606649774
atom        11.2114800000        9.7563300000        3.7633100000 H         0.0000000000         0.0000000000        27.4953112664       21.6813960644       45.6351164234
atom         3.5397800000       10.0742000000       12.9404000000 H         0.0000000000         0.0000000000       131.4971805082      -28.8752664555        9.3863875435
atom         7.9830100000        3.3717900000        1.1945000000 H         0.0000000000         0.0000000000         8.5758211674      -15.7988360105       22.6771059208
atom         3.7344000000        1.0183100000        5.8410400000 H         0.0000000000         0.0000000000       -10.9266536490       50.6447715277      -89.1037131449
atom         2.0288700000        8.9677000000        1.0890600000 H         0.0000000000         0.0000000000       101.3600533107     -102.0425799513        2.3483478806
atom        10.8958000000        0.1045800000        6.9810200000 H         0.0000000000         0.0000000000        19.8854858414      -69.5156992689        8.1166667059
atom         0.0793600000        6.2639200000       10.1218000000 H         0.0000000000         0.0000000000        21.8553331582       42.3385305837       10.1052079826
atom         1.7187300000        8.5459300000        3.4608200000 H         0.0000000000         0.0000000000        -4.1799777002     -130.2963289543       61.1395644060
atom         0.5658100000        2.4514800000        1.9575700000 H         0.0000000000         0.0000000000         5.0959435939      -26.6263623570      -20.6400873677
atom         9.0749100000        6.5812200000        7.6963300000 H         0.0000000000         0.0000000000        53.8952727705      -93.7209668387      -47.5241638568
atom        10.0460000000        4.8609700000        9.1063500000 H         0.0000000000         0.0000000000        -9.5364270493      -50.2287180198       40.9333403589
atom         9.1476700000        7.3439000000        9.1847400000 H         0.0000000000         0.0000000000        99.1604238067     -156.3616157705      -21.4301921942
atom         1.6851500000        1.1805500000        4.1347300000 H         0.0000000000         0.0000000000       -33.0706829238      -45.4714658936       21.9537441314
atom        10.8885000000        1.2907500000        1.5288900000 H         0.0000000000         0.0000000000       131.6820433981       28.6345368797      -14.3107603438
atom         4.1625800000        1.3943000000        4.3557800000 H         0.0000000000         0.0000000000       -94.8463804773       25.9766746649      134.4144781271
atom         5.5227000000        0.1703000000        6.8439900000 H         0.0000000000         0.0000000000       -25.2240672167     -140.6216637591     -110.2129288969
atom        10.8921000000        4.4803500000       12.7747000000 H         0.0000000000         0.0000000000       -94.9941439996      -93.1663530316      -90.0729840353
atom         1.8622900000       10.3085000000        4.4768300000 H         0.0000000000         0.0000000000       -54.5724728386       82.0776443152        7.8128534464
atom         1.9520800000        3.1533900000        3.2212800000 H         0.0000000000         0.0000000000       -37.6784550603      -29.4942711664       -9.5144744237
atom         7.3301800000        9.5843500000        6.9124300000 H         0.0000000000         0.0000000000        90.6357497892      -67.0940868257      -21.4158199953
atom         9.9931300000        1.3919100000        7.5684200000 H         0.0000000000         0.0000000000       -74.4003334237      -12.9200971940       41.1007518086
atom         5.5898100000        0.3214200000       10.2197000000 H         0.0000000000         0.0000000000      -128.3614308215      -38.8939801654      -48.8063322883
atom        10.8904000000        9.4861500000        6.9152400000 C         0.0000000000         0.0000000000         8.0935800613       58.4517078224      -55.3007358901
atom         1.8417400000        7.1182000000        7.1604800000 C         0.0000000000         0.0000000000      -202.6071574040       67.4675374170      178.8329580279
atom         2.3381100000       10.3166000000        7.7862100000 C         0.0000000000         0.0000000000        23.1933695697     -111.5332663537      -10.4160261167
atom         4.5109200000        4.1236100000        0.3118200000 C         0.0000000000         0.0000000000        29.0267721073      -73.5048490448      -64.4047882688
atom         6.5764900000        9.2330300000       10.9312000000 C         0.0000000000         0.0000000000         3.3249189071       23.4963796089       69.9338976092
atom         2.9512800000        4.5190800000        3.0105600000 C         0.0000000000         0.0000000000        -6.1114155779        3.6120535992       25.9275933676
atom         8.2022300000        0.8010000000        8.7253200000 C         0.0000000000         0.0000000000        73.3190702525       93.3510008111      -59.2881685806
atom         4.2990500000        5.0517300000        7.2101200000 C         0.0000000000         0.0000000000      -129.6779190101      -44.6539953095     -124.7294892851
atom         7.9041500000        9.3075100000        5.0044800000 C         0.0000000000         0.0000000000       101.0251574767      -70.8125901493      -20.7482083498
atom         1.5871700000        4.4664800000        9.9485700000 C         0.0000000000         0.0000000000       159.9231006407      -23.5458452926      -93.8064011195
atom         3.7026800000        0.7378200000        1.8019000000 C         0.0000000000         0.0000000000       -88.5509763257       77.8670035467      -78.4169043735
atom         6.2881600000        2.2608500000        5.9605500000 C         0.0000000000         0.0000000000        51.2982160058     -120.3113453185       49.6364414701
atom        10.4805000000        5.5978000000        6.4611500000 C         0.0000000000         0.0000000000      -213.1025364839      184.6964570536     -124.5471661906
atom         1.4248200000        5.1807100000        0.2719700000 C         0.0000000000         0.0000000000        70.8108842150      -16.1726170482       71.9860802883
atom         6.5778600000       10.0322000000        2.5213400000 C         0.0000000000         0.0000000000       -36.1888916161       38.8165055198       -8.2139538166
atom        11.3298000000        0.0180600000        4.2787700000 C         0.0000000000         0.0000000000      -138.1527188158      141.1638048310     -111.6553730371
atom         8.0391500000        8.8323500000        6.4359600000 C         0.0000000000         0.0000000000      -178.9208960888      -76.7902819300      -64.6129341122
atom        10.8422000000        5.1029900000        2.5031200000 C         0.0000000000         0.0000000000        70.6258749346      127.6597244546     -104.9240475449
atom         9.4836900000        6.7778700000       11.8373000000 C         0.0000000000         0.0000000000        64.0604152493      -42.4217238828       92.6918127934
atom         0.1956800000        1.4295000000        9.4517900000 C         0.0000000000         0.0000000000        94.8812154576       66.9599565067      -16.2446292242
atom         9.2812700000       10.1444000000       11.6787000000 C         0.0000000000         0.0000000000       -57.5560716802      168.5422480030     -122.8891318934
atom         8.8166000000        3.7614600000        9.1321300000 C         0.0000000000         0.0000000000       132.6255222426       42.7412380813       70.3414332173
atom         0.7503200000        3.0018400000        6.0524500000 C         0.0000000000         0.0000000000       -33.2090353541       70.3938926939      -34.3345452026
atom         1.1386100000        7.9708700000       11.0439000000 C         0.0000000000         0.0000000000        44.4049607972       24.0726695632      -73.8995275441
atom         4.6000400000        1.2440800000        8.7547200000 O         0.0000000000         0.0000000000      -103.3799573964       19.7046900208      -18.3955166135
atom         8.8805800000        0.6339500000       11.2385000000 O         0.0000000000         0.0000000000        73.6769838069     -200.8685987593      102.0705264673
atom         6.3357800000        1.3074200000        5.1906800000 O         0.0000000000         0.0000000000        -9.5122606229      219.8060513880      133.9210612107
atom         2.9805800000        5.6416800000        3.5042100000 O         0.0000000000         0.0000000000        -8.7570978706     -260.4054579428      -91.1920366411
atom         2.8190300000       10.4613000000        6.6593500000 O         0.0000000000         0.0000000000      -107.2695137000      -31.8754973139      247.1498084959
atom         5.4750100000       10.0264000000        6.0603500000 O         0.0000000000         0.0000000000       -18.1021173494       38.7699285120      102.5655257820
atom         2.8180400000        0.2322400000        2.4866900000 O         0.0000000000         0.0000000000       183.1089494411      100.8843675451     -128.9663262793
atom         2.3598700000        7.7807000000        6.2699500000 O         0.0000000000         0.0000000000       -63.1993506634     -148.8584789189      149.2053837431
atom        10.2476000000        3.8985600000       12.2483000000 O         0.0000000000         0.0000000000       109.3449393114       56.0345482197      -18.6341648343
atom         9.7014500000        9.1280200000       11.7501000000 O         0.0000000000         0.0000000000       -24.3511843096       45.3613326007       24.0661595269
atom         8.3027500000       10.4593000000        4.6988800000 O         0.0000000000         0.0000000000       -69.5054088827      -98.3417922956       44.7414219015
atom         1.7427900000        3.9997600000        0.3283300000 O         0.0000000000         0.0000000000       -76.5135726268      217.3527975909      -20.2173288654
atom         7.6899900000        3.7712700000        8.8267400000 O         0.0000000000         0.0000000000       179.9810640655      -14.7091099919       52.8259807336
atom         3.5049200000        1.6037900000        5.1308500000 O         0.0000000000         0.0000000000       104.9854295017      -65.1684523833      -61.5468047582
atom         2.3456500000        7.8947200000       11.1387000000 O         0.0000000000         0.0000000000      -220.5113306800       -3.0616890024      -11.6875152166
atom         6.6127700000        9.8901700000       11.8789000000 O         0.0000000000         0.0000000000        24.5943439900      -73.1912983707     -112.1666579594
atom         1.4160600000        6.3488400000        0.4929800000 O         0.0000000000         0.0000000000       -14.7227425781     -204.7700195259      -56.5881218798
atom         1.9951400000        9.7413300000        8.8641600000 O         0.0000000000         0.0000000000        74.9290484030      133.2468673031     -229.4045619190
atom         9.7703700000        9.2266400000        6.9360800000 O         0.0000000000         0.0000000000       -85.3110974190      -12.7381676942       12.1832286401
atom         3.7757500000        4.7437700000        0.9745500000 O         0.0000000000         0.0000000000       128.9588711265      -74.8739433801      -90.9797805415
atom         0.6323100000        3.0189700000        7.1830200000 O         0.0000000000         0.0000000000        19.4026182204      -17.9154502954     -125.8044591563
atom         5.1683300000        3.3921500000       12.7402000000 O         0.0000000000         0.0000000000      -143.2348875513      166.4956613699      154.5253338484
atom         4.1589600000        1.5356700000        0.9204700000 O         0.0000000000         0.0000000000      -100.1483727940     -177.5554112443      193.6178171496
atom         5.6150400000        9.3365800000        2.3440100000 O         0.0000000000         0.0000000000       178.8553554746      112.2385563849       35.8313837704
atom         4.3503400000        5.7069300000        8.2074900000 O         0.0000000000         0.0000000000        -0.4564941696     -136.7178835087     -183.5043163388
atom         8.7130800000        7.0054400000       11.0848000000 O         0.0000000000         0.0000000000        22.2652440182       -3.2991051816       38.2541618321
atom         0.3359300000        8.7897000000        6.6018800000 O         0.0000000000         0.0000000000        -2.8653788552       58.0241881413       21.1470879419
atom         7.6484600000        7.6291100000        6.5530000000 O         0.0000000000         0.0000000000        85.0462034375      163.6789182882        6.3863701468
atom         0.4851800000        9.3629800000       11.0167000000 O         0.0000000000         0.0000000000       102.1239680592     -136.2568352315     -102.3566021134
atom         9.0998700000        1.5695800000        8.3025300000 O         0.0000000000         0.0000000000       -81.5783797135     -124.5856684670       -6.5428118993
atom         1.2327200000        0.4902500000        4.5705500000 O         0.0000000000         0.0000000000        18.2888558200      -84.0962520845      -35.6428947667
atom         3.4399400000        9.1774000000        4.2446300000 O         0.0000000000         0.0000000000       106.2839706360      -97.5054597253      -58.6701609907
atom         4.7455700000        0.0924300000        9.6833600000 O         0.0000000000         0.0000000000        16.2919392213      -42.2316688688       90.8010048422
atom        10.3807000000        0.8294000000        4.0642700000 O         0.0000000000         0.0000000000       200.7629808869     -139.2033676149       59.1989465646
atom         6.5731800000        8.5305100000       10.0816000000 O         0.0000000000         0.0000000000        -2.2476853906       25.4082005748       29.8514411477
atom         0.1034100000        6.9783200000       10.6767000000 O         0.0000000000         0.0000000000        91.1750485693      112.3665070744       50.0779105586
atom         0.7282200000        3.2232800000        4.9106200000 O         0.0000000000         0.0000000000        20.8305297728      -49.1661623757      148.2064623637
atom         1.2095600000        2.1158100000        9.3804300000 O         0.0000000000         0.0000000000      -205.7542524649     -148.4770088139       23.9783346153
atom        10.3661000000        8.8737900000        9.2734400000 O         0.0000000000         0.0000000000      -165.0759664015      -79.7973973643       51.3225284189
atom        10.2299000000        6.5131500000       12.6866000000 O         0.0000000000         0.0000000000      -100.3123692440       40.0772891365      -97.8781084461
atom         2.4697200000        4.4567600000        9.0831400000 O         0.0000000000         0.0000000000      -209.6068986230        5.5316426690      190.6717275666
atom         7.3254400000        0.0956000000        8.7300100000 O         0.0000000000         0.0000000000        60.4232969359       36.2511355750       -9.7444777262
atom         0.9731400000        4.3786700000       10.8950000000 O         0.0000000000         0.0000000000        52.1151757309       20.8894194658      -99.3423224021
atom         1.5007900000        7.6384200000        3.7666000000 O         0.0000000000         0.0000000000        45.9008543555       49.5673909138       78.8027899376
atom         9.7012200000        6.3752000000        9.0413000000 O         0.0000000000         0.0000000000       -92.6805887582      148.0697151854      -11.2731257237
atom         6.4444300000        2.8498100000        6.9846500000 O         0.0000000000         0.0000000000       -37.1532582525      -85.6365817378     -193.5060024625
atom         7.4116500000        0.2683500000        2.6447900000 O         0.0000000000         0.0000000000      -148.9903432566     -150.8613783497      -26.3790896265
atom        10.6636000000        0.8022600000        9.4418000000 O         0.0000000000         0.0000000000       149.5574754608       73.8573995847       25.7154360046
atom         2.7159600000        8.0874200000        1.3587000000 N         0.0000000000         0.0000000000         0.5668028008       19.3369324756      -15.6231300241
atom         9.9751500000        3.8481200000        9.5307800000 N         0.0000000000         0.0000000000      -295.3465205013       40.8254549977     -146.5892482370
atom        11.3659000000        1.6875300000       12.3239000000 N         0.0000000000         0.0000000000       157.9329301208     -234.9494148086      -72.4060711538
atom         6.5044500000        6.8753700000       12.6661000000 N         0.0000000000         0.0000000000      -259.2269783887      113.6525768536      138.6821059792
atom         9.3162500000        5.8375100000        6.7372400000 N         0.0000000000         0.0000000000       302.4002890760      -37.7508377330       38.5913822201
atom         4.5262600000        3.3319400000        9.6437000000 N         0.0000000000         0.0000000000       270.1161042021      171.1709056965      249.9555216362
atom        10.5730000000        7.5461300000        2.0459800000 N         0.0000000000         0.0000000000       -29.4596615589      108.8846424767       81.2621746439
atom         8.6519400000        2.9208900000        1.7640300000 N         0.0000000000         0.0000000000        65.4757126548     -107.8161157083       -3.6404653306
atom         4.5799800000        9.7574400000       12.8755000000 N         0.0000000000         0.0000000000       -27.6719260058      -47.8270796085      -26.1968058729
atom         9.8777700000        4.9143000000        1.6849200000 N         0.0000000000         0.0000000000       324.1103043712       32.8019820843       84.3519131724
atom         6.6136000000        5.9969500000        8.0543500000 N         0.0000000000         0.0000000000        93.2908687103        2.9816347452      257.1750375356
atom         5.8329800000        2.8813800000        3.4478500000 N         0.0000000000         0.0000000000       -27.1469874535      -90.8304136843     -151.9686509625
atom         3.1805800000        1.7427500000       11.7339000000 N         0.0000000000         0.0000000000      -132.0535620339      198.7452839082      -15.2597065068
atom         4.5343800000        5.6749000000       10.8456000000 N         0.0000000000         0.0000000000      -135.1432423267       72.7829625408      102.6470705936
atom         9.7503500000        7.0986400000        4.4629500000 N         0.0000000000         0.0000000000      -120.9511962821     -187.0104167863      -24.6795111700
atom         7.4019500000        4.2300200000       12.6963000000 N         0.0000000000         0.0000000000        33.0930582201       -7.3751254101      -65.7867689052
atom         8.7407400000        9.5367500000        1.0971800000 N         0.0000000000         0.0000000000      -170.3613869024     -276.9276884805     -115.1888959663
atom         0.4327000000        5.5974000000        2.8994700000 N         0.0000000000         0.0000000000      -262.3880889459     -163.8718509184      -19.9243243164
atom        11.3583000000        8.9495600000        0.1592700000 N         0.0000000000         0.0000000000       200.3621341595      227.6191516459       34.3352693393
atom         6.3663800000        5.7616100000        1.8762200000 N         0.0000000000         0.0000000000       203.4180516836     -123.7609528832     -130.5681554110
atom        11.2292000000        5.9071000000        5.5871400000 N         0.0000000000         0.0000000000        19.9451377624     -112.9123246415      176.3411118746
atom         1.1006600000        6.8930100000        8.1839300000 N         0.0000000000         0.0000000000       241.3326253388       63.4920997948     -314.2690710332
atom         6.4226100000        5.1075100000        4.9891900000 N         0.0000000000         0.0000000000       139.2179405526      -23.4779706225       70.3288185318
atom         9.6649200000        2.8216300000        4.9259600000 N         0.0000000000         0.0000000000      -259.7413772234       59.7097907540     -117.7505795668
atom         4.8203600000        8.0771400000        7.5641200000 N         0.0000000000         0.0000000000      -140.9611319550       38.6692139322      131.9168010530
atom         5.7061300000        2.3071400000        2.5136500000 N         0.0000000000         0.0000000000        36.3233173674       94.6874246727      157.3029391511
atom         0.5995200000        0.7902200000       12.0272000000 N         0.0000000000         0.0000000000      -161.4964495303      245.5554340268       59.9729774931
atom         2.7494000000        3.0972900000        2.7342200000 N         0.0000000000         0.0000000000        61.1736715773      286.3995606849       59.3952365242
atom         8.6613400000        3.0447300000        4.4275700000 N         0.0000000000         0.0000000000       252.6999614163      -64.0086443636      117.3838347768
atom         7.4186800000        5.2177100000        5.4225500000 N         0.0000000000         0.0000000000      -131.4948321273      -23.9574579067      -53.3026512567
atom         7.2297000000        0.8875700000        0.1326500000 N         0.0000000000         0.0000000000       -27.3601097583      106.8514836063       -3.7812167745
atom         3.6858800000        5.9223700000       11.5044000000 N         0.0000000000         0.0000000000       126.7151614326      -54.5626676107      -93.9021567276
atom         5.5660800000        7.2480500000        0.0845100000 N         0.0000000000         0.0000000000       240.1126584824      -93.6047117154     -154.6006416261
atom         4.0478100000        8.2391400000        8.3421700000 N         0.0000000000         0.0000000000       147.0957757299      -23.2842307011     -137.3347473376
atom         7.8967100000        4.4483800000       11.7734000000 N         0.0000000000         0.0000000000       -20.2193743289       -6.6189418323       44.7540207682
atom         4.9689900000        6.6492200000        4.1520000000 N         0.0000000000         0.0000000000       298.4246228208      143.3025615731       71.5688294758
atom         6.9675500000        5.9997800000        9.1309300000 N         0.0000000000         0.0000000000       -79.1002837236        5.4352717616     -258.6089710609
atom         7.2388900000        5.2958500000        1.3147800000 N         0.0000000000         0.0000000000      -194.3793898801      121.2116872895      172.6274368793
atom         9.2271300000        6.1196500000        4.2902800000 N         0.0000000000         0.0000000000       100.7647128957      195.7298941595       18.1228534987
atom         2.5650800000        2.6783100000       11.6655000000 N         0.0000000000         0.0000000000       144.8983986684     -205.8165893440        9.3162251234
atom         6.9624400000        1.9236100000       13.1243000000 N         0.0000000000         0.0000000000        29.1872080734     -111.5930984241       18.1032463635
atom         3.9299200000        4.3964800000        6.2060800000 N         0.0000000000         0.0000000000       112.0235168687      214.8690375424      219.6571878733
atom         0.6787500000        9.8207800000        0.2898900000 N         0.0000000000         0.0000000000      -176.9294106268     -241.9269595677      -11.8872469363
atom         0.5161100000        1.5819900000        1.5573000000 N         0.0000000000         0.0000000000      -197.7751432200       38.8897839448      109.0400369547
atom        10.3199000000        8.3837600000        2.6985100000 N         0.0000000000         0.0000000000        42.4788038477      -99.6810850714      -80.3415944292
atom         6.0592000000        7.0146800000        4.3943800000 N         0.0000000000         0.0000000000      -316.1555343040      -68.6179843469      -75.5894370617
atom         8.1557600000        8.5908800000        0.7225000000 N         0.0000000000         0.0000000000       168.9039010790      281.8244220976      113.0135607880
atom         5.3406500000        3.8518500000       10.4116000000 N         0.0000000000         0.0000000000      -262.3844919933     -196.7411226578     -265.3185507774
energy    -31540.8052651873
charge 0
end
begin
comment generated by PY
lattice        11.4200000000         0.0000000000         0.0000000000
lattice         0.0000000000        10.5800000000         0.0000000000
lattice         0.0000000000         0.0000000000        13.1400000000
atom         8.7810700000        3.3838800000       10.4281000000 H         0.0000000000         0.0000000000       -10.9385915145      -84.5937963810        1.5081967781
atom         4.3687200000        0.4287300000        6.8477100000 H         0.0000000000         0.0000000000        15.7501103482      -56.8094633165       33.6061939588
atom         3.5573900000        7.6537700000        2.0077100000 H         0.0000000000         0.0000000000       152.0168141243      -59.5011305510       50.3382685097
atom         3.3853400000        5.2381500000        7.4891300000 H         0.0000000000         0.0000000000        64.4134113292     -106.9032118956      -61.3476807944