begin
comment generated by PY
lattice        11.4200000000         0.0000000000         0.0000000000
lattice         0.0000000000        10.5800000000         0.0000000000
lattice         0.0000000000         0.0000000000        13.1400000000
atom         0.5430100000       10.0420000000        2.3226300000 H         0.0000000000         0.0000000000         1.7114264065       82.7321540449      -29.8473441217
atom         2.6450900000        8.9309300000        6.4026200000 H         0.0000000000         0.0000000000        96.0400023931       62.4183390397      127.3151499465
atom         5.8715700000        3.6468200000        0.3698100000 H         0.0000000000         0.0000000000       -71.3268915622      -24.6825445461       49.1554180155
atom         3.5910200000        8.3882300000        4.4050700000 H         0.0000000000         0.0000000000       -90.3918273419     -115.8976106955        4.2628207662
atom         3.6887000000        8.1459000000        2.0449300000 H         0.0000000000         0.0000000000        44.8097472673      -38.0252494998       34.0794663731
atom         3.0631800000        7.0996400000        8.3999900000 H         0.0000000000         0.0000000000       -75.6157676733      113.6626116220        8.7742964975
atom         6.9142800000        9.2879100000        5.7708800000 H         0.0000000000         0.0000000000      -130.2139337256      -38.3893426857       24.1773677273
atom         6.7512200000        0.0509000000        0.2356400000 H         0.0000000000         0.0000000000       -41.4417475021       32.5176582896       22.0213156612
atom         1.7518900000        0.5284900000        6.9577800000 H         0.0000000000         0.0000000000        12.5830782861      -13.0823571299       66.7073392735
atom         2.7579100000        4.2957400000        4.3689100000 H         0.0000000000         0.0000000000        16.6663659642      -26.7985606144       43.2245892061
atom         2.2771400000        5.1575900000       11.7401000000 H         0.0000000000         0.0000000000       -37.4252490140     -124.0126199552       66.2453421105
atom         4.9344700000        3.0794500000        7.8993800000 H         0.0000000000         0.0000000000       -25.5066330953       35.3113357091      -26.9747797023
atom         8.8627300000        5.8209700000        4.3666800000 H         0.0000000000         0.0000000000        46.0285962505       -6.4863670284       32.4660653821
atom         6.9340000000        1.6664200000        0.1524000000 H         0.0000000000         0.0000000000      -103.7624041965      -89.2285181957      -22.6538618603
atom        11.3058000000        3.3106800000        2.4827600000 H         0.0000000000         0.0000000000       -41.9223996610       57.5370023649       32.2348459166
atom         5.3682100000        9.2546000000        5.6920300000 H         0.0000000000         0.0000000000        25.1074989027       21.4374178244       -6.8568095061
atom         3.5953200000       10.3697000000        2.2477800000 H         0.0000000000         0.0000000000       169.3908768369       16.3168050502       13.9603757997
atom         5.0206100000        1.6819600000        0.7535400000 H         0.0000000000         0.0000000000        42.9750058461       -4.4873161258      -13.4078322967
atom         3.3365900000        8.0691900000       11.1201000000 H         0.0000000000         0.0000000000       -22.2533112871       60.4960119372       32.4100532766
atom         3.0539300000       10.3526000000        7.2832000000 H         0.0000000000         0.0000000000         3.9310898270     -128.2919014775        6.3360047703
atom         5.1468400000        8.3627400000        1.8136000000 H         0.0000000000         0.0000000000        -9.4609222904      -11.8212636038        3.7372732215
atom         3.9432700000        6.5387600000        5.9393300000 H         0.0000000000         0.0000000000        50.2279714387       -7.2781937150      -88.5557800892
atom        10.0034000000        2.5668100000        0.5932100000 H         0.0000000000         0.0000000000       120.7224680546      -60.4408197134      102.9453734695
atom         4.5687600000        0.5532800000        0.3976200000 H         0.0000000000         0.0000000000       -65.2091589253      -42.1932557766      -59.9331370215
atom         4.3849600000        3.2908100000        0.9460100000 H         0.0000000000         0.0000000000       146.6947667169       62.4757756905       34.2157580027
atom         1.7477600000        4.5995600000        0.8912200000 H         0.0000000000         0.0000000000       -63.3356672721     -101.9621615836       24.9512304188
atom         5.3816300000        2.6687400000       11.6708000000 H         0.0000000000         0.0000000000       123.8267260305       54.4304147458      107.8969323351
atom         0.9800200000        0.9787300000        2.1943100000 H         0.0000000000         0.0000000000       -19.6712855546     -111.2951850882      -27.0307650543
atom         5.1379300000        0.5630900000        2.0033900000 H         0.0000000000         0.0000000000       -85.9002280750     -100.4365183266       48.2809427118
atom         3.8363700000        4.1924200000        7.4929500000 H         0.0000000000         0.0000000000        51.7670642697      -47.7186976719       -2.2127085042
atom         2.5685400000        7.9666600000        8.5621700000 H         0.0000000000         0.0000000000        70.1398373513     -112.4505651138      -24.8968522745
atom        11.2143000000        3.7317500000       11.2183000000 H         0.0000000000         0.0000000000         5.4565571446       41.2798107728      127.2783810632
atom        10.1847000000        4.2823400000       12.5335000000 H         0.0000000000         0.0000000000       120.4949897678      -23.7664592427       -3.7633511245
atom         4.3604900000        3.1700700000        6.5000000000 H         0.0000000000         0.0000000000        31.5887506641       47.4509522959       56.2861145291
atom        10.5693000000        2.0927800000        8.4663500000 H         0.0000000000         0.0000000000        31.3113472095       -3.7433845162       -4.0719184731
atom         7.4597800000        9.6224400000        1.5731100000 H         0.0000000000         0.0000000000       119.5719321385       21.0070407464      -76.6849472912
atom         0.2030200000        2.5722900000       10.8269000000 H         0.0000000000         0.0000000000       101.5869773632      -19.4352252386      112.1621806851
atom         2.1351000000        5.2341000000        7.8455000000 H         0.0000000000         0.0000000000        43.0702802575       90.7047640957      -69.8319818533
atom        10.1566000000        1.6944100000        4.0172500000 H         0.0000000000         0.0000000000       -26.9587107524        6.5986217224       -8.6780786342
atom        10.7700000000        1.2831800000        0.6747900000 H         0.0000000000         0.0000000000         2.5922769342      108.4085711724       76.1656587769
atom         1.3925900000        2.3076500000        7.4240400000 H         0.0000000000         0.0000000000        85.9477868911       12.5870932649        6.2764834696
atom         3.5270400000        4.9208900000        5.2765300000 H         0.0000000000         0.0000000000       -51.3509061144     -146.7231032948       -9.2975477791
atom         9.2567900000        9.8641400000        3.4553900000 H         0.0000000000         0.0000000000       -38.5070708054       65.6660376176       15.5660977288
atom        11.1306000000        7.0250200000        4.6370000000 H         0.0000000000         0.0000000000       -33.4713229871       18.9324362832      -31.6145120367
atom         1.3484500000        6.2339200000        7.3718500000 H         0.0000000000         0.0000000000       150.4849205768      -15.2886149816      -16.4850283410
atom         6.6422100000        0.4123700000        4.7834600000 H         0.0000000000         0.0000000000      -101.6420937339      -99.0259872005      -26.6711357845
atom         6.2324800000        8.7850800000        7.7815200000 H         0.0000000000         0.0000000000        20.3140975636       -2.1377016409       50.8400483483
atom         8.7086400000        8.9962100000        0.7440100000 H         0.0000000000         0.0000000000       -78.3279074941      116.2808404902       37.7438455148
atom         1.1066300000        7.0116300000       10.8208000000 C         0.0000000000         0.0000000000       -34.0857136705      218.3214247132     -114.7065233656
atom         4.2085100000        6.6679300000        4.9423100000 C         0.0000000000         0.0000000000        82.8907779876      -38.4315342962     -254.1506269297
atom        10.9183000000        3.7073300000        6.6596900000 C         0.0000000000         0.0000000000       136.6496059003       63.0946632981       83.7410312917
atom        10.6071000000        5.8624700000        9.4999700000 C         0.0000000000         0.0000000000        12.9806869050       40.8158458525     -125.8000772175
atom         3.6345400000        6.1740500000       12.9069000000 C         0.0000000000         0.0000000000        71.4802388469     -104.8849638195       14.2685365287
atom         8.2546300000        4.3953100000        2.2903800000 C         0.0000000000         0.0000000000        88.1727607333      -53.9914826914      -84.4748409669
atom         2.8697900000        1.9516300000        6.1985300000 C         0.0000000000         0.0000000000       -26.4549513510      -14.5594132387      199.3303879710
atom         0.5825800000        0.7801500000        8.4536500000 C         0.0000000000         0.0000000000       -58.1461212861      103.9808919178        3.3135513833
atom         2.8686500000        8.6126000000       11.8159000000 C         0.0000000000         0.0000000000        21.6667733922       10.2996194130       64.9765024203
atom         2.1776500000        9.4069900000        3.2546500000 C         0.0000000000         0.0000000000      -152.7992778413      -41.0566049730        7.1577869997
atom         1.9249500000        0.8221200000        7.8882600000 C         0.0000000000         0.0000000000       -61.2033992410       68.9566502058      -86.5292701576
atom         5.6272900000        7.7437200000        9.1388000000 C         0.0000000000         0.0000000000        78.9143788313      218.6876961838      -64.1193262562
atom         1.4336600000        1.0458800000       11.2905000000 C         0.0000000000         0.0000000000        -4.1435896201       73.2132315311      164.2113887763
atom         5.2302500000        6.6379200000        2.6494700000 C         0.0000000000         0.0000000000        48.2752624882      239.0241988621       57.0837154685
atom         0.9517900000        3.9036300000       12.8788000000 C         0.0000000000         0.0000000000      -119.8914445379       66.0872454846        5.3383884228
atom         2.9596000000       10.0359000000       12.0744000000 C         0.0000000000         0.0000000000      -160.2311116879      110.7903623923      -55.6614649056
atom         0.2071300000        4.5463800000        3.8640000000 C         0.0000000000         0.0000000000      -161.3797314650     -164.0796507042      -85.1024491692
atom         9.1906900000        1.1306700000       12.1590000000 C         0.0000000000         0.0000000000        23.3682019216       26.4442623224       62.0497011936
atom         8.1594000000        3.0960200000        9.4031300000 C         0.0000000000         0.0000000000       111.2598322281      -46.4813840858     -106.8802323299
atom         2.5697300000        2.5222600000        1.6516900000 C         0.0000000000         0.0000000000       -73.7240798049      -43.3351965213       60.9671178982
atom         8.8245100000        1.1817900000        2.8590400000 C         0.0000000000         0.0000000000        47.5894685113      -15.6905175632      226.9508345046
atom         8.9267200000        5.5547800000        6.1325500000 C         0.0000000000         0.0000000000       -85.0017023139      139.3885441239     -124.7548418075
atom        10.7285000000        8.5462000000        3.6808200000 C         0.0000000000         0.0000000000      -102.4848552994       15.2823310132      -82.2797309753
atom         4.5242500000        1.8297800000       10.0040000000 C         0.0000000000         0.0000000000        53.0798147950      -59.6585605035       27.6688280073
atom        11.1671000000        0.1665500000        9.0347300000 O         0.0000000000         0.0000000000       135.6761605075       17.6067048285      -65.4541319354
atom         2.0970600000       10.4044000000        3.8600100000 O         0.0000000000         0.0000000000        47.6308410406     -162.0515072135      -74.7455532424
atom         3.1187500000        2.3538200000        0.5766000000 O         0.0000000000         0.0000000000       -81.0262952594       40.4144095378      215.1868238532
atom         1.4415700000        7.9735900000        9.8994400000 O         0.0000000000         0.0000000000       -68.0443264052     -211.3418003304      205.2346753672
atom         2.2756200000        8.0139100000       12.6371000000 O         0.0000000000         0.0000000000        37.0674156162       50.2330476552      -48.0604818153
atom         9.5042600000        5.4401400000        4.8943600000 O         0.0000000000         0.0000000000       -90.4823143054       10.7492525612       89.5983155392
atom         2.1805200000        4.3254600000       12.3084000000 O         0.0000000000         0.0000000000       -85.5767794164       73.2980441935      -51.9653080134
atom        10.9764000000        6.3299800000        8.3968900000 O         0.0000000000         0.0000000000       -81.4136312740      -97.5304767085      257.2287373562
atom         9.0283700000        4.0478400000        1.3954400000 O         0.0000000000         0.0000000000      -178.8508649239       79.7658249087      182.7978196305
atom         1.7927600000        8.3612000000        2.7655300000 O         0.0000000000         0.0000000000        95.2281326341      224.6763649818       71.7844569875
atom         3.6229700000        5.6002400000        0.8951900000 O         0.0000000000         0.0000000000        -1.7428086489      153.2703032738     -266.7138829492
atom        10.1948000000        5.4214300000       10.4727000000 O         0.0000000000         0.0000000000        60.5808560641       60.8503351636     -147.8247052032
atom         9.4281300000        3.0939000000        9.9367000000 O         0.0000000000         0.0000000000      -291.8147607966       15.3384118766     -109.5791471616
atom         0.0095000000        2.1187400000        8.2004500000 O         0.0000000000         0.0000000000        52.1312509900     -110.9493687180       23.7939015503
atom         0.3549900000        6.7383600000       11.6241000000 O         0.0000000000         0.0000000000        93.9409873917        5.8755137193      -74.3809654226
atom        10.4424000000        3.2335300000        5.7774900000 O         0.0000000000         0.0000000000        21.0726869092       10.0624771672       52.9551042057
atom         8.2780200000        1.7343700000       12.4804000000 O         0.0000000000         0.0000000000        89.4251849287      -67.5089004059      -51.9279838280
atom         3.9311700000        6.4104100000       11.7239000000 O         0.0000000000         0.0000000000       -60.5756521300      -60.7070365849      250.2743305823
atom         6.1752700000        2.9460000000       12.3174000000 O         0.0000000000         0.0000000000      -109.9989312780      -34.9581365017      -63.5429638015
atom         2.1019900000        2.3536600000        2.8645500000 O         0.0000000000         0.0000000000       126.6591633151       37.2538892291     -278.3589911974
atom         8.2349800000        9.8712800000        1.0012800000 O         0.0000000000         0.0000000000       -41.1878980896     -153.0114250580       19.9732103618
atom         4.6487200000       10.3644000000        2.4327400000 O         0.0000000000         0.0000000000       -80.0977040407       95.5345790179      -73.6673445315
atom         4.6110400000        7.2379300000        9.4832200000 O         0.0000000000         0.0000000000       180.6009164616       69.3647074321      -40.8087961881
atom         3.5991800000        0.3385500000       13.0745000000 O         0.0000000000         0.0000000000       -31.3424187277      -93.1447767473      -97.9019443519
atom        10.2206000000        0.6488300000       12.0858000000 O         0.0000000000         0.0000000000      -115.4609552063       36.3099257026      -18.3888330387
atom         0.2979300000        4.1218500000        7.4774700000 O         0.0000000000         0.0000000000      -158.7386368670      -45.7068632668     -158.2477159131
atom         6.3724900000        6.6679100000        1.9068900000 O         0.0000000000         0.0000000000      -205.3718318361      -49.3319918237      152.5794798183
atom         3.3877300000        1.5427300000       10.0496000000 O         0.0000000000         0.0000000000       192.2943421023       59.4326407146      -12.8212267607
atom         8.1084200000        6.6167800000        6.1217000000 O         0.0000000000         0.0000000000       109.3047891105     -148.4342966439       17.3650543817
atom         2.3661100000        6.0070700000        7.2900900000 O         0.0000000000         0.0000000000      -183.3251152815      -83.3071386521       86.0537401960
atom         9.4540900000        2.0978300000        3.6392100000 O         0.0000000000         0.0000000000       -32.4894387807     -110.4055152653      -72.6927040373
atom        10.7316000000        2.1148800000        1.1982900000 O         0.0000000000         0.0000000000      -111.0522707622      -49.0250569943     -176.0704503072
atom         6.1446000000        0.7603600000        0.1644700000 O         0.0000000000         0.0000000000        90.3438541666       68.0125954668        5.9953725192
atom         5.8998500000       10.3160000000        4.5000300000 O         0.0000000000         0.0000000000        92.0897418141       98.8189216527       22.8959794091
atom         2.9287200000        7.5845500000        4.5087500000 O         0.0000000000         0.0000000000       209.7401849140       44.5664171211       34.7411346550
atom         3.3151800000        9.3438100000        7.2449200000 O         0.0000000000         0.0000000000      -112.1125238158       44.2074739264     -125.8070750922
atom         5.3134100000        3.7212500000        1.2756300000 O         0.0000000000         0.0000000000       -80.2128574007      -78.1760815739     -108.1974433342
atom         0.8678100000        4.7968700000        4.8095700000 O         0.0000000000         0.0000000000      -107.2724289883      -12.1142988164     -149.9716537945
atom         6.0651500000        8.9082300000        6.0937000000 O         0.0000000000         0.0000000000       104.8269884551       22.3610706278       26.6514242300
atom         8.5647200000       10.5423000000        3.7330800000 O         0.0000000000         0.0000000000        74.9098034397       50.7876228730     -103.3278675940
atom         8.2927800000        1.4246300000        1.9394000000 O         0.0000000000         0.0000000000       -28.9025041664        9.8512989240      -38.8944506975
atom         9.0742700000        4.7963000000        6.9640600000 O         0.0000000000         0.0000000000        18.4785161621       14.5576388242       14.4205555139
atom         3.1202500000        3.9801800000        5.1383300000 O         0.0000000000         0.0000000000        47.0459911386      162.1944291225      -32.3913348309
atom         0.9810300000        0.1138600000        1.7970000000 O         0.0000000000         0.0000000000        -3.9008421793       35.6923116783       28.2051412497
atom         5.7302900000        1.8905300000       10.0647000000 O         0.0000000000         0.0000000000      -249.7009933085       -0.2677850278      -24.9418741176
atom         3.2419100000        1.3364800000        5.3397900000 O         0.0000000000         0.0000000000       -33.2081727823       75.4746611383       81.9366628327
atom         7.5678000000        4.6545900000        3.1586300000 O         0.0000000000         0.0000000000        86.8721438797      -30.7087971518     -106.7773934433
atom         7.3018800000        2.9995900000        8.5415400000 O         0.0000000000         0.0000000000       197.4337709492       23.6535722603      216.2524511246
atom        10.2655000000        6.1726400000        1.7102500000 N         0.0000000000         0.0000000000       -90.4204110563      145.7363884533     -303.2349524342
atom         5.0264700000        6.2868200000        4.0024500000 N         0.0000000000         0.0000000000      -171.2070081588      118.1113566878       70.2083202076
atom         7.5978300000        5.0731300000       12.7405000000 N         0.0000000000         0.0000000000       173.6497384102       66.1176562611     -295.8200604439
atom         9.5477000000        8.8448800000        7.6423700000 N         0.0000000000         0.0000000000       -74.2301528210      -46.1124786857       50.6850351387
atom         1.8638400000       10.5343000000       11.4254000000 N         0.0000000000         0.0000000000       155.1995066975      167.9141188731      118.8235575794
atom         4.5779700000        7.8474700000        2.3738300000 N         0.0000000000         0.0000000000        63.9251437959     -151.2386735936       10.3512694751
atom         2.5733500000        2.1735500000        7.4355300000 N         0.0000000000         0.0000000000      -141.4899681680     -160.8546925164     -222.3078631068
atom         8.8175100000        8.3120700000        8.2287100000 N         0.0000000000         0.0000000000        70.8979179760       30.8744044200      -52.8013770851
atom         5.1002600000        5.1007400000       10.0227000000 N         0.0000000000         0.0000000000        79.7199894335     -108.5134001966      102.4364136663
atom         6.1152900000        7.8753000000       12.6598000000 N         0.0000000000         0.0000000000        -9.4300298873        4.8634120008        9.6598323402
atom         6.3377200000        9.9547000000       10.7717000000 N         0.0000000000         0.0000000000      -289.5477469607       51.1813049880      -86.7897964807
atom         7.1861900000        7.9402400000        4.4305200000 N         0.0000000000         0.0000000000       244.0509087668      -60.4101057358     -240.4711576704
atom         7.0935000000        6.2621800000        8.9820700000 N         0.0000000000         0.0000000000       -34.5484892210     -155.9829331803      -73.8987761734
atom         6.6413000000        3.2321000000        6.0847900000 N         0.0000000000         0.0000000000       247.1878012057       37.5436168617      -65.6599736651
atom         7.6907200000        0.4311200000        6.2386100000 N         0.0000000000         0.0000000000       100.3684105535       22.4712338517      207.6679518379
atom         1.1660500000        6.4111900000        2.2499800000 N         0.0000000000         0.0000000000       169.6687529791      -91.8469882875       70.2346696503
atom         0.3835300000        8.9914900000       11.9798000000 N         0.0000000000         0.0000000000      -222.6075136461       28.1273953797      284.4284537670
atom         6.9291700000        7.6956800000       12.0131000000 N         0.0000000000         0.0000000000         1.1455260819       -0.7321495265       -2.1861368248
atom         3.3356900000        4.0108800000       10.2233000000 N         0.0000000000         0.0000000000      -293.2847547201       56.3027647853      -67.6876218520
atom         6.4605100000        8.6657400000        8.8020400000 N         0.0000000000         0.0000000000      -265.1807268266     -268.3843335797       17.8531851761
atom         1.0279800000        2.2553900000       11.6734000000 N         0.0000000000         0.0000000000        10.4695563985     -301.8310516376     -226.2793653816
atom         5.9482300000        2.7239900000        4.1785000000 N         0.0000000000         0.0000000000      -194.6793475602      197.1504820198     -183.1901638564
atom        10.6448000000        9.6116700000        3.1733200000 N         0.0000000000         0.0000000000        32.1213982742     -279.5183752885      137.6860101069
atom         9.4533900000        8.3706300000       11.8581000000 N         0.0000000000         0.0000000000        79.8856237342     -171.5885812561     -231.5507963184
atom         9.9920300000        6.6636500000        0.6832600000 N         0.0000000000         0.0000000000        79.1718701092     -142.3432847162      301.0569941222
atom         4.6988300000        3.7590100000        7.2380100000 N         0.0000000000         0.0000000000       -60.4240585196      -12.4911933598      -19.8714100543
atom        11.2195000000        4.1149500000       12.2692000000 N         0.0000000000         0.0000000000       109.4019263076      -63.8254800018      -28.8033865543
atom        10.4851000000        7.3886800000        3.9808700000 N         0.0000000000         0.0000000000       113.0992675432      241.7293443929      -26.0547809162
atom        11.1452000000        0.7275900000        5.7211800000 N         0.0000000000         0.0000000000      -151.3610381951     -247.6665435595       34.8447693219
atom         8.5543800000        0.9179700000        9.7495600000 N         0.0000000000         0.0000000000       -28.1642820163       33.1131393374       17.3691244052
atom         5.2633800000       10.1132000000       10.4038000000 N         0.0000000000         0.0000000000       279.8128834296      -40.5946997226      109.0616086450
atom         8.1867300000        0.5582100000        7.2362000000 N         0.0000000000         0.0000000000      -109.7498134220      -24.5422735339     -229.3747117550
atom         5.6681200000        4.4635100000       10.7115000000 N         0.0000000000         0.0000000000       -58.8850622717      104.4502592269     -103.4206728267
atom        10.5338000000       10.3454000000        5.8396100000 N         0.0000000000         0.0000000000       159.5400327347      256.8499564545      -44.6136557351
atom         0.8952500000        7.8337700000        6.4652400000 N         0.0000000000         0.0000000000       -47.3944865179       37.9891485465       87.4108719475
atom         8.0068900000        7.7584300000        3.6250300000 N         0.0000000000         0.0000000000      -233.0050397894       56.8640317532      217.5198839793
atom         6.8666300000        5.3108800000        8.4691000000 N         0.0000000000         0.0000000000        38.1504380296      167.0129574629       65.1839588688
atom         7.6906200000        3.4520200000        5.7376700000 N         0.0000000000         0.0000000000      -225.4809629501      -38.6057218154       79.3625423072
atom         8.9814300000       10.5629000000        9.5472900000 N         0.0000000000         0.0000000000        14.8303748757      -33.5711156395        8.7889831338
atom         2.0832400000        5.9425900000        2.6533800000 N         0.0000000000         0.0000000000      -161.1839189233       71.6648337084      -62.8007032847
atom        11.0436000000        9.0819800000       12.8698000000 N         0.0000000000         0.0000000000       248.9152669844      -12.1046140986     -248.6130324908
atom         5.2982500000        3.5061900000        3.6173800000 N         0.0000000000         0.0000000000       169.1052791527     -214.1857448111      164.0442416200
atom         2.2608100000        4.3311200000       10.0046000000 N         0.0000000000         0.0000000000       268.4974258010      -67.4099170163       49.0534102668
atom        10.7523000000        3.9760800000        3.0627100000 N         0.0000000000         0.0000000000       311.8930192563      128.0792090120      199.4555857292
atom         0.4185700000        8.2233900000        7.3559700000 N         0.0000000000         0.0000000000        66.0340462529      -37.4428867707      -85.5763807308
atom         8.1837300000        5.3184000000       11.7511000000 N         0.0000000000         0.0000000000      -178.9213722145      -79.6316199331      302.8901383882
atom         1.0700800000        3.7192900000        0.8876900000 N         0.0000000000         0.0000000000        78.9355323039      107.5888853583     -114.1167654562
atom         9.8682800000        7.7350300000       11.0057000000 N         0.0000000000         0.0000000000      -122.0616292123      162.7911330136      205.7386765598
energy    -31622.8403948805
charge 0
end
begin
comment generated by PY
lattice        11.4200000000         0.0000000000         0.0000000000
lattice         0.0000000000        10.5800000000         0.0000000000
lattice         0.0000000000         0.0000000000        13.1400000000
atom         0.4105600000        0.7578600000        0.6036600000 H         0.0000000000         0.0000000000        48.2615420332       22.8574496024       88.8923051021
atom         3.1038900000        9.3161900000        9.1878200000 H         0.0000000000         0.0000000000        30.8446378015       11.4012370668      -65.1570035724
atom         4.2485800000        5.2753600000        0.9068600000 H         0.0000000000         0.0000000000        -6.3086684689        6.2781912753      135.5261800478
atom         3.0075300000        5.8609200000        5.1151700000 H         0.0000000000         0.0000000000       -47.2778819465       29.6427735435     -117.4659323566