begin
comment generated by PY
lattice        11.4200000000         0.0000000000         0.0000000000
lattice         0.0000000000        10.5800000000         0.0000000000
lattice         0.0000000000         0.0000000000        13.1400000000
atom         6.6746900000        5.9693600000       12.0934000000 H         0.0000000000         0.0000000000        85.0943274771       84.9353226886      -58.4974635955
atom         7.2090100000        3.4089600000       11.8933000000 H         0.0000000000         0.0000000000        94.6053723691      -24.1681627437       89.3672615995
atom         3.7769600000        7.2893200000        1.3447300000 H         0.0000000000         0.0000000000       -89.2954918648       35.0407855704      -88.2508185224
atom         9.8213100000        7.5539200000        5.3671500000 H         0.0000000000         0.0000000000       -98.3706799101       29.5425465991       77.8283543158
atom         2.0763500000        3.2164100000        8.3961600000 H         0.0000000000         0.0000000000        64.1033699698       -6.7356652732     -116.1490354232
atom         4.2265700000        8.6988200000        7.8298500000 H         0.0000000000         0.0000000000       -94.6056797254      -24.1610919777      -89.3447619553
atom         7.6586200000        1.9990300000        5.2383500000 H         0.0000000000         0.0000000000        89.2922377730       35.0463226564       88.2557079972
atom         1.6142000000        2.2640500000        1.2159900000 H         0.0000000000         0.0000000000        98.3779320860       29.5503759273      -77.8205269035
atom         9.3592400000        8.5063900000       11.3270000000 H         0.0000000000         0.0000000000       -64.1053399786       -6.7346552540      116.1719720349
atom         7.4632900000        3.3939700000        0.5177800000 H         0.0000000000         0.0000000000        70.0663508435      -22.8004593101     -118.5643255378
atom         3.5853000000        7.5763500000       12.7305000000 H         0.0000000000         0.0000000000       -73.6088967392       -0.3893169999      115.6355543118
atom         9.4623600000        7.9166100000        7.0798100000 H         0.0000000000         0.0000000000       -60.6831430990      -15.0864475019     -119.0985647200
atom         1.8180100000        3.4169500000        6.6372000000 H         0.0000000000         0.0000000000        99.6760223059      -35.0143683946       89.7200711557
atom         3.9722300000        8.6838600000        6.0654100000 H         0.0000000000         0.0000000000       -70.0548829391      -22.8025714197      118.5706859915
atom         7.8502400000        2.2860800000        6.9925900000 H         0.0000000000         0.0000000000        73.6091894071       -0.3903233574     -115.6336444252
atom         1.9732000000        2.6268100000       12.6434000000 H         0.0000000000         0.0000000000        60.6819527727      -15.0833995835      119.0855817501
atom         9.6176300000        8.7070200000       13.0860000000 H         0.0000000000         0.0000000000       -99.6777097705      -35.0176166445      -89.7099601105
atom         8.9097400000        4.2018000000       10.3626000000 H         0.0000000000         0.0000000000        86.2208239342      -35.1848888914       99.2889195726
atom         1.8555800000        6.1161500000        2.6258000000 H         0.0000000000         0.0000000000       -67.0568303969       48.1953919364     -103.5501185563
atom         8.2717900000        6.2557900000        4.0019700000 H         0.0000000000         0.0000000000       -87.0915502745       26.2550040342       96.1309730558
atom         3.9526200000        4.1569200000        9.5209100000 H         0.0000000000         0.0000000000        60.1412088060      -33.0463588114     -116.4419535844
atom         2.5259700000        9.4915000000        9.3605700000 H         0.0000000000         0.0000000000       -86.2274870854      -35.1636586174      -99.2666570145
atom         9.5801800000        0.8257400000        3.9573600000 H         0.0000000000         0.0000000000        67.0494923408       48.2230607865      103.5486805002
atom         3.1636500000        0.9659700000        2.5811900000 H         0.0000000000         0.0000000000        87.0940737608       26.2469357041      -96.1285581789
atom         7.4829900000        9.4469200000       10.2023000000 H         0.0000000000         0.0000000000       -60.1402147666      -33.0455318248      116.4326603022
atom        10.5607000000        4.5649900000       10.9830000000 H         0.0000000000         0.0000000000      -108.0636356894      -84.7299065976       21.8047068126
atom         0.3260900000        5.9247200000        1.7229900000 H         0.0000000000         0.0000000000       111.5137928393       78.2112730197        7.7606729895
atom         6.7342100000        5.6690100000        4.7634700000 H         0.0000000000         0.0000000000        90.9707228338      102.0309150448        0.1574048323
atom         5.4215400000        4.4976400000        8.5620300000 H         0.0000000000         0.0000000000      -111.1969886731      -80.7083826784        1.4730961351
atom         0.8749800000        9.8549500000        8.7404000000 H         0.0000000000         0.0000000000       108.0592288774      -84.7427461195      -21.8169753556
atom        11.1097000000        0.6347000000        4.8602400000 H         0.0000000000         0.0000000000      -111.5252477826       78.1858072441       -7.7664108799
atom         4.7012100000        0.3790800000        1.8197400000 H         0.0000000000         0.0000000000       -90.9639169918      102.0371309862       -0.1621631331
atom         6.0140700000        9.7876100000       11.1612000000 H         0.0000000000         0.0000000000       111.1977916533      -80.7048768364       -1.4862330554
atom         8.3186800000        1.4415200000       10.5032000000 H         0.0000000000         0.0000000000        83.0475094873       14.1953060860      101.8038851315
atom         2.6530000000        8.6939400000        2.9477900000 H         0.0000000000         0.0000000000       -83.9908706275       25.3450201691      -99.0026459711
atom         8.4866900000        8.7399300000        3.5815600000 H         0.0000000000         0.0000000000       -82.0220512604       18.3248990644       99.1214214379
atom         3.6642900000        0.8867600000        9.0414900000 H         0.0000000000         0.0000000000        44.0090711710       56.5184186710     -109.9511325444
atom         3.1169000000        6.7316100000        9.2199500000 H         0.0000000000         0.0000000000       -83.0447622319       14.1706053531     -101.7766929380
atom         8.7824400000        3.4038100000        3.6353300000 H         0.0000000000         0.0000000000        83.9960540475       25.3355240009       99.0014686059
atom         2.9487900000        3.4498600000        3.0016800000 H         0.0000000000         0.0000000000        82.0235484930       18.3406197833      -99.1258370478
atom         7.7711800000        6.1765600000       10.6819000000 H         0.0000000000         0.0000000000       -43.9958373723       56.5441418258      109.9529939439
atom         9.6073800000        0.5634200000       11.3659000000 H         0.0000000000         0.0000000000       -64.7933798569      120.5089179857        1.5057035383
atom         1.4534900000        9.9109200000        2.3863700000 H         0.0000000000         0.0000000000        50.5529451234     -123.0053059586      -31.4458269904
atom         7.1409300000        9.8037300000        4.1137400000 H         0.0000000000         0.0000000000        68.2298059212     -112.7424545394       34.4392548283
atom         4.7608300000        0.6792100000        7.6301400000 H         0.0000000000         0.0000000000       -85.0883080355       84.9541720028       58.4701037804
atom         1.8282500000        5.8533000000        8.3574000000 H         0.0000000000         0.0000000000        64.7872330972      120.5111675128       -1.5053159794
atom         9.9819900000        4.6207400000        4.1967600000 H         0.0000000000         0.0000000000       -50.5541524554     -123.0053688726       31.4418655666
atom         4.2945100000        4.5137800000        2.4696200000 H         0.0000000000         0.0000000000       -68.2257054954     -112.7433476331      -34.4499791661
atom         7.9461600000        3.2178100000       12.6826000000 C         0.0000000000         0.0000000000        89.2649271570      -37.8071864210      -20.5999568692
atom         3.0629900000        7.5688800000        0.5586100000 C         0.0000000000         0.0000000000       -90.8684505523       23.9349118680       15.3194394642
atom         9.0290700000        7.7880900000        6.0840000000 C         0.0000000000         0.0000000000       -89.0142361623        8.9201269999      -23.6861520061
atom         2.5614000000        3.1550200000        7.4053600000 C         0.0000000000         0.0000000000        94.6424949365      -37.6442682965      -15.8822472549
atom         3.4894000000        8.5077000000        7.0406400000 C         0.0000000000         0.0000000000       -89.2774508319      -37.8083465676       20.5468194304
atom         8.3725700000        2.2786200000        6.0244800000 C         0.0000000000         0.0000000000        90.8644032726       23.9441817825      -15.3148151264
atom         2.4064600000        2.4982700000        0.4991900000 C         0.0000000000         0.0000000000        89.0097284988        8.9048890013       23.6895904637
atom         8.8742100000        8.4450500000       12.3179000000 C         0.0000000000         0.0000000000       -94.6362603107      -37.6379335521       15.8234995089
atom         9.6684300000        3.9294500000       11.1265000000 C         0.0000000000         0.0000000000         0.2457042076      -83.1001238188       70.0614769588
atom         1.2341800000        6.5320000000        1.8128200000 C         0.0000000000         0.0000000000        17.2623542104       92.9078260876      -42.4954952065
atom         7.4840700000        6.4726000000        4.7495600000 C         0.0000000000         0.0000000000       -14.7063539916       97.5309964511       53.1669122626
atom         4.5109700000        3.8852100000        8.6007700000 C         0.0000000000         0.0000000000        -8.8789491136      -81.2801987615      -85.3611827333
atom         1.7671900000        9.2193200000        8.5967900000 C         0.0000000000         0.0000000000        -0.2739923617      -83.1074834454      -70.1006955946
atom        10.2015000000        1.2418000000        4.7703300000 C         0.0000000000         0.0000000000       -17.2790407992       92.9082485095       42.4716198758
atom         3.9514000000        1.1827100000        1.8336100000 C         0.0000000000         0.0000000000        14.7162664135       97.5307145212      -53.1616374519
atom         6.9246500000        9.1752100000       11.1224000000 C         0.0000000000         0.0000000000         8.8952790804      -81.2827997073       85.3970564553
atom         9.0671800000        1.5156300000       11.3101000000 C         0.0000000000         0.0000000000        27.2479890236       73.8328716694       37.0178427959
atom         1.9042500000        8.9332100000        2.1721400000 C         0.0000000000         0.0000000000       -29.1606434488      -68.1603071976      -83.1168887662
atom         7.7285000000        8.9101200000        4.3563800000 C         0.0000000000         0.0000000000       -22.4399953040      -68.9137631812       85.1143650594
atom         4.0851300000        1.3738500000        8.1463600000 C         0.0000000000         0.0000000000        -3.8518686326       78.6662647043      -16.8623002579
atom         2.3683700000        6.8055500000        8.4131600000 C         0.0000000000         0.0000000000       -27.2532343875       73.8629478516      -37.0684526095
atom         9.5312200000        3.6430300000        4.4109600000 C         0.0000000000         0.0000000000        29.1608329236      -68.1514033658       83.1219181887
atom         3.7069900000        3.6201700000        2.2268800000 C         0.0000000000         0.0000000000        22.4495084779      -68.9019038861      -85.1144668810
atom         7.3504300000        6.6638600000       11.5770000000 C         0.0000000000         0.0000000000         3.8497076038       78.6546513418       16.8582209768
atom        11.2060000000        3.7299200000        0.1270400000 O         0.0000000000         0.0000000000      -282.8943110479       80.9073116735       53.7929815115
atom        11.3511000000        6.8230400000       12.6978000000 O         0.0000000000         0.0000000000       290.2420096365      -46.0974423443      -37.5848570335
atom         5.9558400000        6.6369500000        6.8885600000 O         0.0000000000         0.0000000000       288.0076993078        5.6953559346       62.9921582195
atom         5.7043400000        3.7258100000        6.2789700000 O         0.0000000000         0.0000000000      -294.6677638789       68.8883655918      -14.2883476552
atom         0.2296100000        9.0198200000        6.4562100000 O         0.0000000000         0.0000000000       282.8702212903       80.9112340012      -53.7947670602
atom         9.7011300000        1.3043100000        8.2764200000 O         0.0000000000         0.0000000000       144.1712442968       18.8328893977     -270.7258219888
atom         5.4797100000        1.3468900000       12.8347000000 O         0.0000000000         0.0000000000      -287.9971898469        5.7417095064      -63.0244695719
atom         5.7312600000        9.0158600000        0.3042000000 O         0.0000000000         0.0000000000       294.6579232926       68.8810937613       14.3118874843
atom         9.6132300000        4.3423900000        1.5047600000 O         0.0000000000         0.0000000000       101.0873815702      -70.5100421180     -274.8103113228
atom         1.7343900000        6.5944600000       11.4467000000 O         0.0000000000         0.0000000000      -144.1638921209       18.8367478413      270.7201994726
atom         7.6521700000        6.8019600000        8.2882400000 O         0.0000000000         0.0000000000      -120.0952244264      -24.9330644539     -278.3715994256
atom         3.8939300000        4.2322500000        5.1421600000 O         0.0000000000         0.0000000000       144.7868388855      -60.2105880388      262.6984435639
atom         1.8223200000        9.6323600000        5.0785000000 O         0.0000000000         0.0000000000      -101.0616376022      -70.5149463755      274.7899489775
atom         0.0844700000        1.5329600000        7.0253800000 O         0.0000000000         0.0000000000      -290.2725080977      -46.1208973819       37.5817181259
atom         3.7834600000        1.5124100000       11.4350000000 O         0.0000000000         0.0000000000       120.0800171186      -25.0001273678      278.3195018645
atom         7.5416500000        9.5223200000        1.4410300000 O         0.0000000000         0.0000000000      -144.7812791647      -60.2177940936     -262.7278793483
atom         8.6249400000        1.7716300000        1.6933500000 O         0.0000000000         0.0000000000        83.8004584946      -99.5134370906     -261.2372477874
atom         2.1841500000        9.3478500000       11.8017000000 O         0.0000000000         0.0000000000      -109.0249500733       19.0248426577      283.5024568994
atom         7.9538900000        9.6025100000        7.8370000000 O         0.0000000000         0.0000000000      -115.5136346958      -13.8718253349     -283.8653292684
atom         2.5099600000        1.8787800000        4.9945100000 O         0.0000000000         0.0000000000       168.4203511975     -109.5110574797      212.8810349264
atom         2.8104800000        7.0615600000        4.8898400000 O         0.0000000000         0.0000000000       -83.7921718814      -99.5097997917      261.2556794329
atom         9.2513400000        4.0576700000        7.9214300000 O         0.0000000000         0.0000000000       109.0439875608       19.0155319196     -283.5310476028
atom         3.4817000000        4.3128600000       11.8863000000 O         0.0000000000         0.0000000000       115.5236008728      -13.9114955810      283.8919806384
atom         8.9257100000        7.1689000000        1.5887700000 O         0.0000000000         0.0000000000      -168.4255587424     -109.5239987046     -212.8769489519
atom         9.8502600000        0.4555700000        0.4605700000 O         0.0000000000         0.0000000000      -206.4816977375      208.8886699046       30.1747996589
atom         0.6629700000        9.9622200000        0.1295800000 O         0.0000000000         0.0000000000       263.8574613175     -124.9610911359      -75.8932149740
atom         6.3536600000        9.9140500000        6.3548400000 O         0.0000000000         0.0000000000       274.4602497058      -83.3683969776       78.9736172574
atom         4.1186300000        0.5624700000        5.6311600000 O         0.0000000000         0.0000000000      -211.2604173224      200.8433979083       61.0962046286
atom         1.5852100000        5.7455000000        6.1226800000 O         0.0000000000         0.0000000000       206.4663918013      208.8842276153      -30.1788431313
atom        10.7726000000        4.6719300000        6.4535300000 O         0.0000000000         0.0000000000      -263.8913916615     -124.9513404259       75.8818867101
atom         5.0819800000        4.6240100000        0.2285000000 O         0.0000000000         0.0000000000      -274.4795705433      -83.3174622332      -78.9453174003
atom         7.3169900000        5.8526100000        0.9522100000 O         0.0000000000         0.0000000000       211.2809601318      200.8320750607      -61.0928341940
atom         0.1485600000        0.9955500000       10.4845000000 O         0.0000000000         0.0000000000       -65.0338347004      281.2227103646       40.0362756655
atom        10.9259000000        9.1846700000        3.4030800000 O         0.0000000000         0.0000000000        90.4624875152     -273.2671761300      -68.0041895169
atom         5.2290700000        8.7803400000        3.2632800000 O         0.0000000000         0.0000000000       138.1176885694     -249.8271096793       56.2026481238
atom         6.2820500000        0.9462300000        9.4255400000 O         0.0000000000         0.0000000000       -56.9476873843      279.8415880390      -47.6754908013
atom        11.2869000000        6.2854800000        9.2386600000 O         0.0000000000         0.0000000000        65.0409101497      281.2216075973      -40.0625090140
atom         0.5096600000        3.8946300000        3.1802300000 O         0.0000000000         0.0000000000       -90.4876191607     -273.2687107801       67.9591389497
atom         6.2064400000        3.4903300000        3.3200000000 O         0.0000000000         0.0000000000      -138.1289379779     -249.8259858616      -56.2232540600
atom         5.1536200000        6.2361900000       10.2977000000 O         0.0000000000         0.0000000000        56.9316973894      279.8505062034       47.6844079013
atom         0.7119900000        3.1142100000       10.5226000000 O         0.0000000000         0.0000000000      -188.7650506943     -208.5251155283       24.1163896816
atom        10.7958000000        6.9941600000        3.5849100000 O         0.0000000000         0.0000000000       117.2815954069      235.1555132908     -113.1358650536
atom         5.4550600000        6.6018900000        3.0606800000 O         0.0000000000         0.0000000000        80.9263830068      253.1976723307      106.6917950538
atom         6.8058300000        3.0889500000        9.5803400000 O         0.0000000000         0.0000000000      -174.7704300949     -211.9525265586      -73.8509397047
atom        10.7235000000        8.4041500000        9.2005300000 O         0.0000000000         0.0000000000       188.7717821270     -208.5393773536      -24.1181116778
atom         0.6398900000        1.7041300000        2.9982900000 O         0.0000000000         0.0000000000      -117.3304505387      235.1424817152      113.1325987336
atom         5.9803300000        1.3118800000        3.5225600000 O         0.0000000000         0.0000000000       -80.9006038443      253.2001692561     -106.6916965439
atom         4.6298200000        8.3789000000       10.1429000000 O         0.0000000000         0.0000000000       174.7810107476     -211.9579835120       73.8638773107
atom         9.0795500000        4.1347300000       12.4441000000 N         0.0000000000         0.0000000000         8.2567366450     -161.5861115721      -60.2617439417
atom         1.9804200000        6.5591000000        0.5656000000 N         0.0000000000         0.0000000000       -33.8778091717      149.3622728577       78.4228696194
atom         8.1018000000        6.6370200000        6.0618000000 N         0.0000000000         0.0000000000       -43.4776058725      145.6060376329      -91.0671634550
atom         3.7040300000        4.0933800000        7.4210400000 N         0.0000000000         0.0000000000        27.1260934918     -166.1646278110       77.1011803061
atom         2.3560300000        9.4246600000        7.2791200000 N         0.0000000000         0.0000000000        -8.2438818674     -161.5947719316       60.2686907714
atom         9.4551800000        1.2689100000        6.0175300000 N         0.0000000000         0.0000000000        33.8847196726      149.3558096366      -78.4186734269
atom         3.3337200000        1.3471700000        0.5213500000 N         0.0000000000         0.0000000000        43.4654316062      145.6056644066       91.0865730101
atom         7.7315800000        9.3834100000       12.3021000000 N         0.0000000000         0.0000000000       -27.1139590789     -166.1674286626      -77.0672633490
atom         8.3703500000        1.8258700000       12.5621000000 N         0.0000000000         0.0000000000       103.0002423594      115.1680128010      -51.3137629834
atom         2.5618300000        8.9080400000        0.8783100000 N         0.0000000000         0.0000000000       -98.0447934839     -145.0960385833       57.2329293129
atom         8.3936000000        9.0370600000        5.6448200000 N         0.0000000000         0.0000000000       -90.7421958451     -158.5458850755      -39.8599518389
atom         3.0323600000        1.7842000000        7.2273400000 N         0.0000000000         0.0000000000       109.7278927948      113.1930755226       37.6527719914
atom         3.0651700000        7.1157800000        7.1611200000 N         0.0000000000         0.0000000000      -102.9786856188      115.1714657341       51.3189592702
atom         8.8736600000        3.6178200000        5.7048100000 N         0.0000000000         0.0000000000        98.0581105840     -145.0908708918      -57.2388657603
atom         3.0419300000        3.7472200000        0.9384400000 N         0.0000000000         0.0000000000        90.7375492040     -158.5612036656       39.8555539676
atom         8.4032400000        7.0742400000       12.4960000000 N         0.0000000000         0.0000000000      -109.7255049044      113.1923878451      -37.6561086273
atom        10.0344000000        2.5389400000       10.9442000000 N         0.0000000000         0.0000000000       -57.1906678973       19.0488976371       52.7942392249
atom         0.8606100000        7.8999900000        2.2020900000 N         0.0000000000         0.0000000000        83.0898473762      -31.3915118853       34.7467994717
atom         6.8425000000        7.7363700000        4.3709800000 N         0.0000000000         0.0000000000       100.9313740767      -16.9368021684      -34.1011761893
atom         4.9002200000        2.4819900000        8.6485100000 N         0.0000000000         0.0000000000       -33.7627492656       11.2582642289      -16.9884290569
atom         1.4011300000        7.8288400000        8.7789300000 N         0.0000000000         0.0000000000        57.1977520046       19.0459889335      -52.7326794341
atom        10.5749000000        2.6098100000        4.3809400000 N         0.0000000000         0.0000000000       -83.0773495506      -31.3816618381      -34.6939774056
atom         4.5930300000        2.4464500000        2.2121900000 N         0.0000000000         0.0000000000      -100.9546874636      -16.9529882372       34.1227742734
atom         6.5354400000        7.7719800000       11.0747000000 N         0.0000000000         0.0000000000        33.7413380075       11.2558159790       16.9986302399
atom        10.0456000000        4.0507300000        0.3980500000 N         0.0000000000         0.0000000000        72.2288080483       -3.4178790124       91.8434336305
atom         1.1457500000        6.6663100000       12.5233000000 N         0.0000000000         0.0000000000       -56.4827541262       22.6411369442      -97.5654657171
atom         7.1559600000        6.6965600000        7.1654800000 N         0.0000000000         0.0000000000       -68.2938897269       17.0503520458       83.9134882008
atom         4.5030400000        3.9941900000        6.1773000000 N         0.0000000000         0.0000000000        62.0731248756       -1.5417585509     -104.5448399020
atom         1.3899800000        9.3406700000        6.1852000000 N         0.0000000000         0.0000000000       -72.2234626844       -3.4233638894      -91.8478487203
atom        10.2898000000        1.3761600000        7.1998300000 N         0.0000000000         0.0000000000        56.4925319871       22.6590236517       97.5668709204
atom         4.2796100000        1.4067400000       12.5577000000 N         0.0000000000         0.0000000000        68.3117377153       17.0513039146      -83.8430638660
atom         6.9325600000        9.2842400000        0.4058900000 N         0.0000000000         0.0000000000       -62.0822992605       -1.5352941660      104.5316556548
atom         9.0098500000        1.3263000000        0.6112500000 N         0.0000000000         0.0000000000        56.5802393331      -51.2923028272       91.8867690026
atom         1.7207400000        9.4453600000       12.9371000000 N         0.0000000000         0.0000000000       -66.8783088554       41.5435162810      -84.2495230378
atom         7.4733500000        9.5564100000        6.7075400000 N         0.0000000000         0.0000000000       -61.5355131976       34.9176601522       87.8615125511
atom         3.2490400000        1.3965800000        5.8447100000 N         0.0000000000         0.0000000000        27.3738391028      -44.9419724507     -117.6707458327
atom         2.4256100000        6.6162300000        5.9719600000 N         0.0000000000         0.0000000000       -56.5755640024      -51.2962596864      -91.8853465807
atom         9.7147700000        4.1551300000        6.7860100000 N         0.0000000000         0.0000000000        66.9055160446       41.5443379457       84.2776364946
atom         3.9622400000        4.2665800000       13.0158000000 N         0.0000000000         0.0000000000        61.5277274846       34.9034876832      -87.8957420193
atom         8.1866100000        6.6866800000        0.7386000000 N         0.0000000000         0.0000000000       -27.3862314393      -44.9241728765      117.6742446498
atom        11.3211000000        2.1921900000       10.6403000000 N         0.0000000000         0.0000000000        89.7202881836      -27.3650331125      -21.6022335783
atom        11.2911000000        8.0322100000        3.1182900000 N         0.0000000000         0.0000000000       -76.9345644544       19.5507980079       63.9959553936
atom         5.7949800000        7.7069500000        3.5039300000 N         0.0000000000         0.0000000000       -85.4253114462       -0.3377387427      -55.1703799189
atom         6.0528600000        2.1526100000        9.2460400000 N         0.0000000000         0.0000000000        71.7554673537      -21.0446351871       39.5028976832
atom         0.1143900000        7.4821100000        9.0828200000 N         0.0000000000         0.0000000000       -89.7429217450      -27.3552077346       21.6343757491
atom         0.1444400000        2.7421400000        3.4648900000 N         0.0000000000         0.0000000000        76.9969237951       19.5532686989      -63.9713182833
atom         5.6404900000        2.4169600000        3.0793100000 N         0.0000000000         0.0000000000        85.4376361854       -0.3338849353       55.1840946773
atom         5.3828000000        7.4425700000       10.4772000000 N         0.0000000000         0.0000000000       -71.7567954047      -21.0505606835      -39.5181713110
energy    -35484.4878031148
charge 0
end
begin
comment generated by PY
lattice        11.4200000000         0.0000000000         0.0000000000
lattice         0.0000000000        10.5800000000         0.0000000000
lattice         0.0000000000         0.0000000000        13.1400000000
atom         6.9455500000        5.6362500000        9.4057500000 H         0.0000000000         0.0000000000        57.9298124709       84.8390267952       20.3033267045
atom         7.3880400000        2.4564400000        0.6497300000 H         0.0000000000         0.0000000000       126.6636506186       53.8491250831       69.7874282018
atom         3.9534300000        8.1201600000       12.2740000000 H         0.0000000000         0.0000000000      -132.1821881169        3.0146045075      -48.7061673293
atom         9.2717900000        8.0672900000        3.6076800000 H         0.0000000000         0.0000000000       -63.2985832057      -21.0642812632       83.7514533394