begin
comment generated by PY
lattice        11.4200000000         0.0000000000         0.0000000000
lattice         0.0000000000        10.5800000000         0.0000000000
lattice         0.0000000000         0.0000000000        13.1400000000
atom         6.7561700000        2.2111700000        7.2955900000 H         0.0000000000         0.0000000000       -23.1063163940      116.1477401074      -64.5796509077
atom         8.0680600000        9.4038400000        7.2338200000 H         0.0000000000         0.0000000000        21.7367143937        4.4113593115       -1.0525636834
atom         3.5710900000        8.1647900000        1.4323800000 H         0.0000000000         0.0000000000        47.3800273376       21.5498362129       25.5774729573
atom         0.1874500000        4.9227300000        3.6141500000 H         0.0000000000         0.0000000000        12.2887196124       53.0363165585     -155.5304940574
atom         9.4390500000        0.8915700000        9.5905100000 H         0.0000000000         0.0000000000         2.1277832867       54.1429463402       81.6014080459
atom         0.7620800000        2.5486400000       10.6429000000 H         0.0000000000         0.0000000000        94.0883378787        0.0977631830     -113.4224878266
atom         2.2743800000        2.0950200000       10.3384000000 H         0.0000000000         0.0000000000      -121.9515897166       53.8897541629      -53.3790546734
atom         2.1590500000        6.1885000000       12.5401000000 H         0.0000000000         0.0000000000         6.5979356844      -36.5856452931      -16.3395021973
atom         1.4322700000        2.5423200000        7.1793300000 H         0.0000000000         0.0000000000       -27.7124458312      -30.7014152738      -31.0644673047
atom         6.5068500000        7.4858300000       10.0847000000 H         0.0000000000         0.0000000000        55.2862895834       51.1047332125       26.7175344214
atom         9.0585300000        2.6610900000        6.2516000000 H         0.0000000000         0.0000000000       101.7515502499      -98.6703904750       -3.5272907543
atom         6.5822900000        4.5616200000        8.1242000000 H         0.0000000000         0.0000000000       -23.8966221764      106.3615003407      -13.0054748920
atom         0.0474000000        0.0460000000        5.7212400000 H         0.0000000000         0.0000000000        55.2568179836      -31.1942852857       65.2455632856
atom         8.3916100000        7.6626900000        5.6430900000 H         0.0000000000         0.0000000000        66.4193782282       61.7220085437      -58.0326573895
atom         1.4566900000       10.2952000000        5.7812600000 H         0.0000000000         0.0000000000       -74.4855816971       12.9753468605       38.8290522705
atom         7.7885200000        7.6762300000        0.8837200000 H         0.0000000000         0.0000000000       -22.3210712755       15.6586093203       -6.4061023808
atom         0.7685300000        6.3691300000       11.0470000000 H         0.0000000000         0.0000000000       -36.9479134823      -57.1317425217     -107.4672747673
atom         9.0779000000        8.6176400000        0.4273500000 H         0.0000000000         0.0000000000      -113.6472152482       -5.5214199723      -33.3874328803
atom         4.9219200000        2.5523000000        8.0072800000 H         0.0000000000         0.0000000000       -24.6265776704      -36.8948235267       45.0774985125
atom        10.7899000000        5.1320300000        2.2322000000 H         0.0000000000         0.0000000000       154.2304641804        1.2730106677       64.4555473516
atom         0.3811200000        9.8531700000        8.8999200000 H         0.0000000000         0.0000000000      -165.0883699440       52.2331893597        6.4587100498
atom         6.1310100000        5.4048900000        9.1003800000 H         0.0000000000         0.0000000000         9.5187385438       26.9135547286      -32.8854663094
atom        11.2034000000        8.7760300000        0.1646000000 H         0.0000000000         0.0000000000       -93.4888830676       86.0962378504      -30.8725757035
atom         5.4615700000        5.6795900000        7.7553800000 H         0.0000000000         0.0000000000        81.8835553276      -22.2976371869       37.5511452578
atom         1.6396100000        5.0729600000        0.4493000000 H         0.0000000000         0.0000000000         1.8495117655       37.5020558256     -120.2131964248
atom         7.5124600000        9.3108400000        0.4030600000 H         0.0000000000         0.0000000000         7.0520029131      -36.5042117584        8.0297103177
atom         6.3019000000        8.0279000000        6.3572800000 H         0.0000000000         0.0000000000        81.1934863650      -59.2919792324       44.4936714222
atom         5.9814300000        3.0310800000        0.1163900000 H         0.0000000000         0.0000000000       108.7402665515      115.7497539411      -57.6509878791
atom         9.8505200000        9.2635900000       11.4172000000 H         0.0000000000         0.0000000000        16.6069570136       -3.5448174253       33.4338525363
atom         1.5073700000        4.6382100000       12.0176000000 H         0.0000000000         0.0000000000        22.8410765577        6.2879269529       -8.8983665553
atom         7.5843700000        7.4512400000        3.8166800000 H         0.0000000000         0.0000000000       -56.0332501280       49.2763105770      -38.8968780661
atom         7.3892700000        2.7003800000        3.9904400000 H         0.0000000000         0.0000000000       108.9735081727        2.3481588766       44.3410512453
atom         9.0525300000        0.0016000000        6.8877000000 H         0.0000000000         0.0000000000       -17.9655766113     -133.1256480213       80.1970095359
atom         9.0768700000        2.5500100000        3.9024100000 H         0.0000000000         0.0000000000      -140.4587851431       25.2880553525       82.2506030777
atom         3.3698500000       10.3272800000       10.7462000000 H         0.0000000000         0.0000000000        75.3679281281      -46.5245353194       -4.7673668739
atom         7.7259600000        8.1773200000       12.4819000000 H         0.0000000000         0.0000000000        12.4168590983        4.3266915285       28.4050505335
atom        10.3345000000        8.3772600000        8.8972800000 H         0.0000000000         0.0000000000       -60.0683951809     -117.3733865049        5.3304038219
atom        10.0497000000        9.7324200000        8.6244700000 H         0.0000000000         0.0000000000       101.0324693016       59.9358200945       37.2494504135
atom         9.4975700000        7.4340600000        8.1446800000 H         0.0000000000         0.0000000000        40.1075676889       10.2624260246       56.9417171307
atom         7.1712600000        6.8987100000        7.3302800000 H         0.0000000000         0.0000000000       -53.8359580256       65.0487102341      -62.9167359470
atom        11.3809000000        1.5951800000        8.8573100000 H         0.0000000000         0.0000000000       -69.0368178176       78.5868057809      -85.6415343052
atom         6.9141200000        3.4421800000       11.9760000000 H         0.0000000000         0.0000000000       -35.7020632755       44.5648269465      109.0374225916
atom         6.5458000000        5.2970900000       13.0976300000 H         0.0000000000         0.0000000000       -13.9168864033       35.1455541510       32.8261140871
atom        11.3009000000        6.4973100000        9.7995000000 H         0.0000000000         0.0000000000        51.1808578279      -31.4301623898       41.4396603602
atom         6.2950000000        2.7320700000        5.9390700000 H         0.0000000000         0.0000000000        11.2534086382       35.6815396899       87.7708122469
atom         9.9870300000        1.1481100000        5.7907600000 H         0.0000000000         0.0000000000        -9.7610562840        2.0228700340      -16.3026488011
atom        10.7837000000       10.2914000000        0.2872400000 H         0.0000000000         0.0000000000       -45.1351088867     -147.4152249330      -54.5185659707
atom        10.8253000000        4.6253200000       10.6088000000 H         0.0000000000         0.0000000000       -36.5421090976     -107.4512852941       -4.6716226897
atom         6.1335800000        1.3992800000        2.1692100000 C         0.0000000000         0.0000000000       100.5606305856       45.8736992856      -26.6928487344
atom         5.3561900000        2.9423400000        9.4566400000 C         0.0000000000         0.0000000000        11.7496991800     -158.4031474649       39.6827714038
atom         0.8301900000        1.6537500000       12.5732000000 C         0.0000000000         0.0000000000       -65.3672982807       24.5043643773       14.5043148150
atom         4.5054600000        8.4979100000        7.7237300000 C         0.0000000000         0.0000000000       -74.9108936625       34.3533844002      -98.7269350906
atom         0.4089500000        3.6425700000        4.7612100000 C         0.0000000000         0.0000000000       -56.8458893175      -87.2299166172      -77.9055957786
atom        10.4843000000        5.8050300000       12.9909000000 C         0.0000000000         0.0000000000        15.4640628295      -22.1120063584     -125.6010926512
atom         4.9731500000        9.5409200000       11.5885000000 C         0.0000000000         0.0000000000      -109.6596007854       13.8293162446      -12.3586390450
atom         5.3333800000        6.7805500000        0.1982700000 C         0.0000000000         0.0000000000       102.5886594383     -174.7737356574      -35.3978017068
atom         5.4300500000        1.5175900000       11.7812000000 C         0.0000000000         0.0000000000       -67.7575253779       62.8788292393       34.6623236137
atom         9.2632600000        4.1928700000        7.8856600000 C         0.0000000000         0.0000000000       110.2626617599       48.6690818995       70.3351936554
atom         2.6918900000        0.5228900000        8.2607200000 C         0.0000000000         0.0000000000        32.1261461860       12.5501572652       -4.4797068935
atom         8.0242300000        8.7885800000       10.7601000000 C         0.0000000000         0.0000000000        51.5869883508      -15.2196158643      -74.1183298314
atom        11.0836000000        2.2584400000        6.9621700000 C         0.0000000000         0.0000000000        48.7970328675     -127.0782520411      -68.1563532505
atom         5.8712400000        8.1258500000        4.0960800000 C         0.0000000000         0.0000000000        29.3053549188       42.6606298839      -95.9463801326
atom         9.7639700000        2.5607300000       10.6288000000 C         0.0000000000         0.0000000000       110.8433422783       17.6237359039      -93.3424812747
atom         8.7675100000        1.6922200000       12.9894000000 C         0.0000000000         0.0000000000       -88.5193934158       40.7186584371       32.4828349779
atom         5.3811000000        9.0821100000        1.9942500000 C         0.0000000000         0.0000000000      -179.0639333967      -98.3580481028      -60.2760406926
atom         9.1063600000        5.1993100000        5.4099100000 C         0.0000000000         0.0000000000        13.1857621729       80.5049594298       53.6912989663
atom        10.8240000000        7.3148400000        2.2962000000 C         0.0000000000         0.0000000000        19.0604482805       98.4973632355       39.5583392792
atom         4.4523200000        5.5129900000       10.9286000000 C         0.0000000000         0.0000000000       -36.3609548577       56.7888920475      -10.9184742629
atom         1.6722600000        8.4411300000       11.8382000000 C         0.0000000000         0.0000000000       -82.7074578654      -35.8579032191       63.8090157242
atom         1.9542700000        7.5244600000        8.3822600000 C         0.0000000000         0.0000000000        -3.6804662329      -53.6310398278       -6.3931796351
atom         9.6357800000        9.1030000000        5.1338400000 C         0.0000000000         0.0000000000        20.0155584601      150.0504862334      -66.0353687041
atom         8.4664500000        5.0502000000        2.4247900000 C         0.0000000000         0.0000000000        18.0059556825       88.0322592958      -52.2404433259
atom        10.7870000000        6.5088500000       12.0391000000 O         0.0000000000         0.0000000000       -89.8456102023     -121.1922809777      218.3943014916
atom        10.2919000000        4.8162800000        7.8765100000 O         0.0000000000         0.0000000000      -192.7622308824     -118.2683420999      -12.8949561839
atom         8.8655100000        9.6623600000        7.5196400000 O         0.0000000000         0.0000000000        10.9574028078      129.7536828261      -77.9334276291
atom         7.0555100000        1.1092300000        2.8455100000 O         0.0000000000         0.0000000000      -180.6806057867       53.9502683465      -99.4850263500
atom         4.3843500000        1.9925600000       11.6626000000 O         0.0000000000         0.0000000000       131.9397257788      -67.1344297676       -9.6671039481
atom         6.7073800000        3.7684300000       12.8693000000 O         0.0000000000         0.0000000000       -86.4961375923     -117.7028720420      -40.0670913491
atom         0.6464500000        2.6211400000        0.0930800000 O         0.0000000000         0.0000000000        35.5075439380     -180.3581779158     -138.6964572981
atom         5.1156700000        7.7454900000        8.3355200000 O         0.0000000000         0.0000000000       -84.2286263270      109.5541056622      -66.1849874778
atom         8.3262200000        3.9237800000        2.3925900000 O         0.0000000000         0.0000000000        10.4821143914      139.8303965032       -2.7446471986
atom         8.3549700000        3.5668400000        8.1622100000 O         0.0000000000         0.0000000000       100.3061946373       71.8100960938      -32.2630143698
atom         5.5275600000        9.3419900000       12.6958000000 O         0.0000000000         0.0000000000      -109.4289944823       46.3947362823     -243.7634170220
atom         0.3419100000        5.2601900000        2.6307400000 O         0.0000000000         0.0000000000      -158.0825194428      -72.7182870188       60.2835463299
atom        10.2253000000        7.5400600000        1.2889900000 O         0.0000000000         0.0000000000       113.8883480127      -62.9077234694      161.6509286111
atom         4.9365200000        8.6772300000        4.6609600000 O         0.0000000000         0.0000000000       178.9849285081     -114.6295242177     -104.2455332923
atom         8.2085600000        2.7902800000        4.4801100000 O         0.0000000000         0.0000000000        31.8967963555      -33.0364341010     -103.0562764746
atom         3.8230200000        9.1729400000        6.9582300000 O         0.0000000000         0.0000000000       149.4478249951     -135.0210586011      175.1834813314
atom         8.5064000000        5.6190000000        6.3543600000 O         0.0000000000         0.0000000000        99.6095590779      -99.2120894265     -185.4313696339
atom        11.1082000000        3.0040700000        3.9422900000 O         0.0000000000         0.0000000000       166.0392367396      134.7944526791      190.2129957226
atom         6.2166100000        3.3743500000       10.1828000000 O         0.0000000000         0.0000000000      -153.3766807351      -54.5558274833     -129.1606296029
atom         5.4791700000        6.0245400000       10.9488000000 O         0.0000000000         0.0000000000      -106.0713162530      -74.0407198963       -5.6121945015
atom         4.2533500000        7.0202500000       12.7941000000 O         0.0000000000         0.0000000000       204.9629083224      -25.8347372523      122.4521901613
atom         3.3409800000        5.2421300000       10.8771000000 O         0.0000000000         0.0000000000       150.6589979189       11.4020716428       -3.8908464034
atom         5.4797700000        1.8929200000        1.3303800000 O         0.0000000000         0.0000000000        73.0197576737      -81.7494226444      125.3059564520
atom         8.7696600000        2.9332000000       12.8674000000 O         0.0000000000         0.0000000000        24.0505585369     -293.1064170047       30.3185060697
atom         9.8537900000        5.0229900000        4.5405200000 O         0.0000000000         0.0000000000      -120.3074436765       24.9119508596      125.5603198246
atom         0.8002600000        0.6665700000       11.9317000000 O         0.0000000000         0.0000000000        19.8771744759      151.8106279613      108.0150414297
atom         1.4596900000        2.4699900000        9.8974100000 O         0.0000000000         0.0000000000        22.4551200410      -35.9015666745      157.9904717350
atom         6.4436700000        1.2228400000       12.1454000000 O         0.0000000000         0.0000000000       -66.8363814640        2.9016692633      -48.9165935360
atom         2.6238100000        6.6135600000        8.7918800000 O         0.0000000000         0.0000000000      -118.8763196771      194.0563763964      -83.7759212673
atom         9.9547100000        7.4540700000        8.9369500000 O         0.0000000000         0.0000000000        23.9254895144      116.3253788462      -59.1506679994
atom         2.2730800000       10.5337000000        9.2227500000 O         0.0000000000         0.0000000000        70.5795337670      100.8515946207     -179.0423669530
atom        10.4834000000        9.3773600000       13.0093000000 O         0.0000000000         0.0000000000       134.3862781964       65.8653196678       99.7354953348
atom         7.0964100000        7.6029100000        6.6301600000 O         0.0000000000         0.0000000000       -32.6228680872      -11.7955057629       14.9337437482
atom        11.4137000000        7.4868700000        3.2946900000 O         0.0000000000         0.0000000000      -112.1928304983      -21.7799068784     -172.0277142207
atom        10.8212000000       10.2625000000        9.0532300000 O         0.0000000000         0.0000000000        52.7859947087     -122.7595697131      -50.4459692344
atom         8.4226900000        0.5546800000        0.1696500000 O         0.0000000000         0.0000000000        89.8371833172      240.6970544747      -63.5716769394
atom         1.1086000000        4.3381400000        5.3380900000 O         0.0000000000         0.0000000000       -85.1195621268      -61.6854671412      -81.4789197038
atom         6.3973700000        9.6832300000        1.9319600000 O         0.0000000000         0.0000000000      -163.3974897807      -76.8629180861       17.2837880724
atom         0.7731400000       10.4788000000        6.3872300000 O         0.0000000000         0.0000000000         8.7865194022      -14.0828317215     -110.7691699084
atom         1.5584200000        7.8439200000       12.8738000000 O         0.0000000000         0.0000000000        37.8942016516      125.5036665158     -179.2052946838
atom         6.4443700000        3.1402700000        6.7770100000 O         0.0000000000         0.0000000000        10.4256631999     -176.1339258236      -17.4430872996
atom         1.2338900000        8.3169900000        7.8947700000 O         0.0000000000         0.0000000000       131.9388525207     -128.3112824029       96.0839907043
atom         1.4828100000        8.9959700000       10.8553000000 O         0.0000000000         0.0000000000        44.0742592634      -74.7582982064      125.0281055099
atom         8.6527700000        6.2354600000        2.2883200000 O         0.0000000000         0.0000000000       -42.5135536065     -230.4505264637       44.9763352822
atom        10.7753000000        2.1575000000        8.2978000000 O         0.0000000000         0.0000000000        95.2367303649      -35.6310283290      -47.3778507884
atom         3.2345100000        1.0938000000        7.3775900000 O         0.0000000000         0.0000000000      -115.4684996790     -117.5162075882      163.2523187637
atom        10.1480000000        4.8716600000        0.4789700000 O         0.0000000000         0.0000000000        55.3108766712      158.4163375731      -86.0870357532
atom         0.5862700000        6.0067700000       10.1604000000 O         0.0000000000         0.0000000000       -26.3710172206       58.8597928241       59.2238065462
atom         8.9848200000        9.5820500000        2.8858700000 N         0.0000000000         0.0000000000        -0.5995614954      200.7328226964      -69.4154413692
atom         4.6695000000        2.1393800000        8.9374900000 N         0.0000000000         0.0000000000       184.7196869763      258.6364346337       38.6644416829
atom         3.6744200000        5.8037100000        5.7171200000 N         0.0000000000         0.0000000000        19.6437542184      107.6256982780       22.4159457959
atom         6.9429900000        8.3140000000       10.4705000000 N         0.0000000000         0.0000000000       236.4141667960      101.4552804624       70.4068941431
atom         0.8450000000        2.1375800000        6.4794600000 N         0.0000000000         0.0000000000      -271.1280577562       91.1723613732      125.0440405746
atom         6.7080000000        7.8199500000        3.3289400000 N         0.0000000000         0.0000000000      -135.1396689129       22.0438028267      259.4932008509
atom         4.2262200000        9.7522700000       10.6691000000 N         0.0000000000         0.0000000000       156.4570562905      -15.3943082879      257.4700792449
atom         6.3768700000        6.1930500000        0.5225600000 N         0.0000000000         0.0000000000      -304.0804621165      150.9889873493     -115.3258499135
atom         3.7669900000        2.6363900000        5.6226500000 N         0.0000000000         0.0000000000      -188.5283302685       41.3673217306     -222.2870218397
atom         3.3161800000        0.9983700000        0.1060100000 N         0.0000000000         0.0000000000       -23.0579456028     -246.4180228554       45.5011368437
atom         2.8706200000        3.0283200000        2.3056700000 N         0.0000000000         0.0000000000       -37.1445476241       -3.7024886061      -31.7196374691
atom         1.8012300000        9.0634300000        4.5079300000 N         0.0000000000         0.0000000000        70.3534300749     -130.6373828391       25.5304219857
atom         5.2940400000        4.9116700000        4.2615300000 N         0.0000000000         0.0000000000       101.2851057010     -220.0171033308     -265.7557381311
atom        11.3186000000        7.4928800000        6.0115400000 N         0.0000000000         0.0000000000        98.3276336447      -56.7692585434        9.9942654437
atom         7.3593800000        0.4241000000        8.9310700000 N         0.0000000000         0.0000000000        65.0463108040      217.1694096011     -201.6375906345
atom        10.6730000000        1.3496300000        2.1597300000 N         0.0000000000         0.0000000000       -40.8363042007      223.0543061942      -32.7063235174
atom         7.7740400000        5.4998200000       10.5316000000 N         0.0000000000         0.0000000000       127.8317455525       30.4796299606      197.0376536126
atom         3.2786700000       10.4620000000        0.2478000000 N         0.0000000000         0.0000000000        23.2893687306      243.7527329075      -49.6169174142
atom         0.8490200000        9.5740100000        2.4644000000 N         0.0000000000         0.0000000000       142.2936840054       53.4143523609     -183.0914173336
atom         9.1276700000        9.2913300000       10.8382000000 N         0.0000000000         0.0000000000      -372.3430288174     -136.4175436980      -59.0501318636
atom         9.9309000000        1.9799800000        6.2927600000 N         0.0000000000         0.0000000000       105.7728165080      114.7837990445      102.3740747004
atom         3.3031800000        6.0620400000        2.0692000000 N         0.0000000000         0.0000000000       177.7637876474     -190.5180453154      -47.3074143179
atom         9.1310500000        8.0939700000        4.9586600000 N         0.0000000000         0.0000000000       -18.3169177129       73.1333758978       85.4341155174
atom         6.5326200000       10.2664000000        5.7586300000 N         0.0000000000         0.0000000000      -108.0808746345      166.7995078718     -140.4443229615
atom         8.9821300000        0.0845200000        2.6266200000 N         0.0000000000         0.0000000000       -10.3332132221     -218.5230681740       51.3897332073
atom         6.3966200000        5.5964400000        8.1871500000 N         0.0000000000         0.0000000000       -58.8630304473      -93.6209353996       -5.8907697220
atom        10.4272000000        3.5648500000       10.6008000000 N         0.0000000000         0.0000000000      -135.6745991187     -177.1622196347       27.7935566546
atom         9.3253000000        1.4568100000       10.4666000000 N         0.0000000000         0.0000000000        95.3592628742      227.8227032379        2.2280309816
atom         3.3658100000        4.5814000000        7.9139600000 N         0.0000000000         0.0000000000      -274.7016843833     -114.3755804793       22.9807908798
atom         3.9147400000        0.4768100000        4.3312200000 N         0.0000000000         0.0000000000       -51.8258856023        0.0023544195      -70.6907768413
atom         1.9300900000        2.9180700000        1.8133900000 N         0.0000000000         0.0000000000        47.0807322355       13.5145325833       46.4268946459
atom         7.5765600000        1.2527300000        8.1678300000 N         0.0000000000         0.0000000000       -76.5561749381     -203.1445024211      182.3056024715
atom         3.0256200000        2.7508500000        4.7600400000 N         0.0000000000         0.0000000000       187.2842462605      -21.5305190415      244.1573259245
atom         2.2998300000        4.1738700000        7.9843000000 N         0.0000000000         0.0000000000       274.3759989531       96.2280722092      -23.6902313141
atom        10.0778000000       10.1947000000        5.0550300000 N         0.0000000000         0.0000000000       -89.4894190661     -266.8206152909       47.3309529594
atom         2.2393900000        8.0639600000        4.6017700000 N         0.0000000000         0.0000000000       -60.6086596414      152.1011433400      -24.3505281387
atom         5.5717000000        4.1921700000        3.3773300000 N         0.0000000000         0.0000000000       -75.6346932317      204.7609976349      270.7145727379
atom         0.8414400000        6.9602300000        5.9930900000 N         0.0000000000         0.0000000000      -107.0691798931       44.3955995345        3.0093920510
atom         3.4341000000        0.6778000000        3.3925400000 N         0.0000000000         0.0000000000        41.5572639183      -25.8518892500       58.4169732656
atom        10.4202000000        2.4355000000        2.0702700000 N         0.0000000000         0.0000000000        46.0566519665     -218.4595337971       13.0633406306
atom         8.3638500000        5.6516000000       11.4705000000 N         0.0000000000         0.0000000000      -130.1402368263      -34.5618530739     -193.2070017742
atom         4.0716400000        5.2503800000        1.8854900000 N         0.0000000000         0.0000000000      -190.5085796125      198.0672661133       31.6296225848
atom         1.5644000000        9.8056100000        1.6309000000 N         0.0000000000         0.0000000000      -165.3311215532      -57.2238524801      179.4071144269
atom         4.3423200000        8.5003900000        1.9522800000 N         0.0000000000         0.0000000000       282.1545778359      161.3017118592        8.5936177685
atom         1.5953300000        5.4153800000       12.5485000000 N         0.0000000000         0.0000000000       -37.6630255105      -31.3277949501      158.3965656991
atom         3.9289200000        6.8374800000        5.9103500000 N         0.0000000000         0.0000000000       -19.3050189156     -113.1021705030       -2.8500309751
atom         7.9170700000        8.4248300000        0.2764500000 N         0.0000000000         0.0000000000       132.9122983095       25.2250345385      -12.1435928256
atom         6.0387900000        0.4564600000        5.1048500000 N         0.0000000000         0.0000000000       132.2614734762     -155.8568015194      154.5059043762
energy    -32786.8844855922
charge 0
end
begin
comment generated by PY
lattice        11.4200000000         0.0000000000         0.0000000000
lattice         0.0000000000        10.5800000000         0.0000000000
lattice         0.0000000000         0.0000000000        13.1400000000
atom         5.6193600000        1.2770600000        6.6414700000 H         0.0000000000         0.0000000000        18.5668903225      165.9902431128        8.7574991938
atom         9.7076100000        8.7432900000        8.7396300000 H         0.0000000000         0.0000000000        -5.7101164621      -92.1631905962      -81.1140165182
atom         2.8903300000        8.2599000000        2.4484800000 H         0.0000000000         0.0000000000        74.4244858989       23.6138604079       -8.1947280345
atom        11.1416000000        6.0076600000        2.7779900000 H         0.0000000000         0.0000000000       -50.9065648663      -37.7948545240      -91.0211813399