begin
comment generated by PY
lattice        11.4200000000         0.0000000000         0.0000000000
lattice         0.0000000000        10.5800000000         0.0000000000
lattice         0.0000000000         0.0000000000        13.1400000000
atom         9.4119000000        7.8049000000        4.0533300000 H         0.0000000000         0.0000000000        69.1163453433       97.8250041425      106.9813510104
atom        10.9727000000        8.3690400000        9.3811100000 H         0.0000000000         0.0000000000        71.4718104024      -65.7552717822     -119.9880509769
atom        11.1581000000        0.8320700000        3.3554000000 H         0.0000000000         0.0000000000        67.5407483555     -101.9488970244       -4.3369685417
atom         6.0824200000        8.1812700000       11.8281000000 H         0.0000000000         0.0000000000       -45.0747582070      -12.1256348069       28.8340123289
atom        11.1916000000        7.0187500000        4.8492500000 H         0.0000000000         0.0000000000        60.6705027206      -23.8177967670       76.1828897579
atom         0.6675600000       10.2723000000        4.7656300000 H         0.0000000000         0.0000000000       -13.3689605283       -5.1003074048      -20.6187149889
atom         8.6565600000        8.4530300000       10.8636000000 H         0.0000000000         0.0000000000        -7.7850988050      -24.1266362910     -115.7792615660
atom         3.9289300000        5.8829900000        5.8570700000 H         0.0000000000         0.0000000000        -4.7822033756       46.2744133065     -124.6613358317
atom         4.6956000000        6.5119000000       11.5729000000 H         0.0000000000         0.0000000000        55.5309839420      -72.6685689115      -62.7827811197
atom        10.1492000000        2.0102900000        7.0750900000 H         0.0000000000         0.0000000000        70.1388340667       23.6231333084       75.4647791847
atom         3.9015400000        6.0905300000        9.3497900000 H         0.0000000000         0.0000000000       -81.0966932769       11.2884622508      -49.1651608599
atom         3.3532000000        1.7346100000        7.3874500000 H         0.0000000000         0.0000000000        37.3193484011      -11.5316346071       36.2723918779
atom         4.9681100000        4.5231400000        2.3716800000 H         0.0000000000         0.0000000000       -38.3057609275       70.6843814761       38.2692820665
atom         2.8003200000       10.0392000000       11.9634000000 H         0.0000000000         0.0000000000        22.4533246593       47.6572855690       33.6967148674
atom        10.1128000000        1.8943200000        3.5373700000 H         0.0000000000         0.0000000000        -4.2055337628      132.7649999870      -90.5182152212
atom         9.2724300000        9.0395800000        4.9996900000 H         0.0000000000         0.0000000000        34.6625056632      -60.0884230418      -22.1771099433
atom         9.4475300000        8.2933600000        1.4228200000 H         0.0000000000         0.0000000000      -103.8760734769     -115.6894325315      -17.9272647239
atom         7.4197600000        7.4914800000        9.0448100000 H         0.0000000000         0.0000000000       -73.2580588346      -82.8457287635      -23.1956769685
atom        10.1878000000        2.0520900000        9.9361000000 H         0.0000000000         0.0000000000       -81.1455074290       -2.7299524748      120.8505813339
atom         5.7473200000        7.3240500000        9.2436500000 H         0.0000000000         0.0000000000        97.0066475910      -70.6225545522      -67.6383912827
atom         9.3987800000        8.9682300000        9.7485800000 H         0.0000000000         0.0000000000      -106.8693520518      -93.4162288223        8.8201917351
atom         3.8714400000        1.3624800000        9.0013500000 H         0.0000000000         0.0000000000        13.7644927205        0.1783504654     -110.6409429582
atom         5.7807600000        0.8111300000        4.6717400000 H         0.0000000000         0.0000000000        21.3576549354      -31.5729545804       99.3242148988
atom         5.0598600000        1.5478400000        7.7473600000 H         0.0000000000         0.0000000000       -75.1080831371      -31.9877287234        2.2435693807
atom         0.1252300000        7.0690100000        6.6302600000 H         0.0000000000         0.0000000000        46.5231953193      -55.6522074272     -133.7882852861
atom         6.4534200000        6.4939800000        7.7773800000 H         0.0000000000         0.0000000000         7.8036481151       18.9230076113       97.9926454717
atom         6.5302200000        6.1734800000        9.7312200000 H         0.0000000000         0.0000000000        10.1733355437       30.0240910967      -95.3949769409
atom        11.3020000000        3.3657700000        5.2147200000 H         0.0000000000         0.0000000000       -14.8986031758      -34.8035641506      -30.4047279365
atom         3.6733000000        0.3891000000        7.7119700000 H         0.0000000000         0.0000000000        30.6461014504       38.1289403386        2.4664834305
atom        11.3837000000        3.4800300000       12.0066000000 H         0.0000000000         0.0000000000        21.7216917941       14.7887244725       51.7356953132
atom         7.2779600000        4.2529700000       10.4904000000 H         0.0000000000         0.0000000000       -11.5632403378       25.8662398328      120.0615475473
atom         5.0086600000        8.2905100000       13.0084000000 H         0.0000000000         0.0000000000        49.9026291978      -24.4115782242     -150.2118837361
atom         6.8925800000        9.0706100000        0.3033200000 H         0.0000000000         0.0000000000       -95.5453353185       -1.5383308807       81.7919308700
atom         0.2897800000        2.1091000000        5.4979300000 H         0.0000000000         0.0000000000       -71.4278013144       62.9569023081     -106.4945900525
atom         5.4937800000        5.2769400000       11.7352000000 H         0.0000000000         0.0000000000       -53.4303369234       68.2900999850     -110.1625070225
atom         9.9410700000        3.5058500000        3.1362000000 H         0.0000000000         0.0000000000        19.9962728695     -145.7913706087      -14.0745284831
atom        10.4307000000       10.5283000000       10.4765000000 H         0.0000000000         0.0000000000       122.2485701739        6.8665577206     -113.3734379468
atom         3.5526400000        0.1229000000       10.9703000000 H         0.0000000000         0.0000000000        -8.8145272686       43.5616006901      114.4020560184
atom        10.9605000000        0.0634000000        8.9669600000 H         0.0000000000         0.0000000000         2.7456084871       -4.6810686317       67.3185658374
atom         8.5797000000        7.1018500000        2.0468900000 H         0.0000000000         0.0000000000        15.5042952408       74.1209086271     -108.4640925844
atom         0.8593200000        7.8894800000        9.0166200000 H         0.0000000000         0.0000000000       -79.4424908605       -2.1988970101      -38.8809297249
atom         1.1855800000        3.4397300000       12.9361000000 H         0.0000000000         0.0000000000        15.2277479880       10.5931839154        0.2599166550
atom         9.4262600000        1.3601700000       11.1856000000 H         0.0000000000         0.0000000000        32.4408208929       63.2592229398      -52.0357211787
atom         7.3168200000        3.3147700000       11.6228000000 H         0.0000000000         0.0000000000        -4.3110719222      156.1732475806       -5.2870727422
atom         2.6754500000        8.5480600000        7.9497300000 H         0.0000000000         0.0000000000       -13.1141264521      -77.3731365677     -100.5297047324
atom         6.3682700000        0.0191000000        5.8649400000 H         0.0000000000         0.0000000000       -24.8045261420       52.9315389859      -57.1573959581
atom        11.2530000000        4.3508800000        0.2687400000 H         0.0000000000         0.0000000000        58.8017139795      -82.5411167643      -62.0620792515
atom         9.8278600000        5.5065400000        6.3018700000 H         0.0000000000         0.0000000000        16.4876321910      -24.5692757384       -6.6128183936
atom         3.6155800000        3.6120200000       11.1883000000 C         0.0000000000         0.0000000000       -33.7200205753      -46.5831404643      -49.7106685899
atom         5.9143600000        8.6612500000        1.9618400000 C         0.0000000000         0.0000000000      -201.4853905697     -116.9450587816      182.4124725042
atom         5.7766200000        9.6765100000        8.6708800000 C         0.0000000000         0.0000000000       -99.8085369116      -33.9159570572      -12.4737012447
atom         7.9239000000        0.0120600000        2.9767900000 C         0.0000000000         0.0000000000       -11.5983614272       61.6435279832       23.5093500591
atom         8.4721900000        6.2449100000       12.1659000000 C         0.0000000000         0.0000000000        27.0725382936       51.1690681783       39.5014070425
atom         7.1873200000        5.4031400000        1.5380300000 C         0.0000000000         0.0000000000         3.7055765620       -0.3865632420      -85.1963065197
atom         0.5646200000        2.2854300000        7.6455900000 C         0.0000000000         0.0000000000      -205.6120718032       11.0698578984       13.3704636572
atom        11.2722000000        9.5168400000        2.6652700000 C         0.0000000000         0.0000000000        83.7486803432      165.3679793836      108.8144506918
atom         5.6193500000        3.9530800000        8.0923700000 C         0.0000000000         0.0000000000        -9.5338297056      -23.8967363411       77.7963965276
atom         7.5053400000        5.4229100000        4.7763300000 C         0.0000000000         0.0000000000      -195.4738745486       66.6888940132      -43.6577111262
atom        10.5532000000        5.6445800000        2.5429100000 C         0.0000000000         0.0000000000         5.4867818183       44.0317532204       34.7190789787
atom         4.1799200000        5.9033600000        3.7569700000 C         0.0000000000         0.0000000000        69.5334877853      -47.8729160078      120.4756126219
atom         3.1938700000        1.3064500000       12.8088000000 C         0.0000000000         0.0000000000        84.5347298925       34.3066718867       68.9770904275
atom         9.1571000000       10.5608100000        6.0403800000 C         0.0000000000         0.0000000000      -189.5576514238      -90.0158479139      -79.8125990979
atom         9.1197100000        3.9252100000        6.6128800000 C         0.0000000000         0.0000000000      -170.6638621721       80.4818565880       38.8650684793
atom         7.9449300000        0.9842800000        8.4480400000 C         0.0000000000         0.0000000000       -80.2867108698       41.8071105313      -20.3243074511
atom         1.4059000000        9.9048700000        6.6074000000 C         0.0000000000         0.0000000000        21.0082772553       -1.6210195076     -161.4628895397
atom         2.9140800000        7.9820500000       10.5125000000 C         0.0000000000         0.0000000000        48.6983257019      -64.1591795033       55.9198006393
atom         3.9413600000        2.9106100000        5.1496300000 C         0.0000000000         0.0000000000       103.0041760431     -116.9099736869      -98.5233369967
atom         3.5700900000        6.8474800000        7.6588100000 C         0.0000000000         0.0000000000        50.9495195481      -21.3094857377      -25.2253484331
atom         1.7075500000        1.2778600000       10.3808000000 C         0.0000000000         0.0000000000        29.5863809322        8.1334619405      -73.7331216351
atom         8.8530100000       10.1358000000       12.9445000000 C         0.0000000000         0.0000000000       -79.3369320732       66.2136959804      -50.1103003011
atom         1.0936400000        5.5432500000        5.2955900000 C         0.0000000000         0.0000000000        85.5888756903     -138.9675867234       69.7226773710
atom         2.7782300000        5.8878700000        0.4060500000 C         0.0000000000         0.0000000000        69.7542438261      -89.2334456288       34.1693414227
atom         6.6200100000        5.7727500000        0.5753800000 O         0.0000000000         0.0000000000        84.6967839265      -55.7093433498      165.3766122458
atom         6.2956200000        5.3652100000        4.8365700000 O         0.0000000000         0.0000000000       249.7522826421      -12.8583860506       15.3257016069
atom         3.0926700000        6.2993000000        8.8582600000 O         0.0000000000         0.0000000000       158.8215613636       49.3137879670      -68.8957453008
atom         2.8125500000        4.3266100000       11.6837000000 O         0.0000000000         0.0000000000       161.0901384883     -134.3408989567      -95.2790474092
atom         4.8560800000        4.0208200000        7.2116500000 O         0.0000000000         0.0000000000       134.7330249790      -16.4013704977      151.9045230676
atom        11.2103000000        2.5641600000        4.7773300000 O         0.0000000000         0.0000000000        95.9786826218      -30.3739126481      157.3229194414
atom         5.5937300000        9.4162600000        7.5311400000 O         0.0000000000         0.0000000000        52.8327041260       47.2041798012      199.7781564075
atom         6.7741200000        0.2019500000        2.9828500000 O         0.0000000000         0.0000000000       178.0998361790      -42.0846765409      -10.1262232493
atom         4.0030000000        6.0483200000        0.4519400000 O         0.0000000000         0.0000000000      -273.8742047631      -19.1636945179      -11.6818904578
atom         8.4363600000        5.9190000000        4.3774000000 O         0.0000000000         0.0000000000       -38.5782281621      -52.3391476452       48.4787777170
atom         1.6806100000        2.2340000000        7.3116600000 O         0.0000000000         0.0000000000      -134.4320344832        8.1724328377       53.5911085270
atom         5.8145900000        0.7167200000        5.6063000000 O         0.0000000000         0.0000000000        10.8873660642      -20.6791338368      -47.9791724264
atom         4.7588400000        3.7274600000        4.9372300000 O         0.0000000000         0.0000000000      -160.7960176956     -124.0881559908       41.5156876970
atom        10.2414000000        0.5417700000        6.2757100000 O         0.0000000000         0.0000000000      -189.3377225799      -90.3254863011      -27.7665892210
atom         5.2134800000        8.0406900000       11.9938000000 O         0.0000000000         0.0000000000       -18.4307054637       40.7781611427      108.4149861402
atom         9.0850000000        0.0451900000        2.9877300000 O         0.0000000000         0.0000000000      -169.7365775366      -16.7838997544      -11.2324832538
atom         3.0768600000        8.8309300000        9.7369000000 O         0.0000000000         0.0000000000       -26.8697779406     -125.3227350763      104.9230339391
atom         7.7586100000        7.1628500000       11.7958000000 O         0.0000000000         0.0000000000       136.4596412928     -188.1476124037       66.2034351067
atom         7.2026000000        4.3867500000       11.4608000000 O         0.0000000000         0.0000000000        24.5016726344     -176.0518572984      -96.2299893434
atom         2.7181700000        7.7421300000        7.1867300000 O         0.0000000000         0.0000000000       121.9507840222      -36.0224222351      139.5886315875
atom        10.9772000000        8.6063200000        2.0084800000 O         0.0000000000         0.0000000000        34.5152652298      126.4470194249       87.9090831406
atom         4.7218900000        6.4209200000        7.1059800000 O         0.0000000000         0.0000000000      -232.0175698931       87.1285419117      108.7892596016
atom         4.2571300000        2.7673500000       10.5503000000 O         0.0000000000         0.0000000000      -128.0326955066      179.5458005390      141.7736861180
atom         8.8004800000        0.5244500000        9.0547500000 O         0.0000000000         0.0000000000      -106.1177182514       48.3521523018      -86.1513757533
atom         2.9199000000        7.1177000000       11.3357000000 O         0.0000000000         0.0000000000       -23.3062201367      179.8804853373     -155.1838511063
atom         5.6054400000        9.8115600000        9.8359700000 O         0.0000000000         0.0000000000        48.9759691327      -12.4282517233     -186.8350634813
atom         6.0577300000        9.1369900000        0.8154000000 O         0.0000000000         0.0000000000        64.4012337890      -29.4487487871       32.3243771112
atom         6.1948600000        3.8279900000        9.1596000000 O         0.0000000000         0.0000000000      -110.8637391635       29.5347997553     -220.4462010141
atom         9.3538700000       10.2458000000       11.8959000000 O         0.0000000000         0.0000000000       -75.8777093322      -36.3436795358      121.9600221298
atom        11.2650000000       10.5114000000        9.8182300000 O         0.0000000000         0.0000000000      -138.7434299812       -1.3624603734       56.1607280411
atom        10.7039000000        6.6198300000        3.2248600000 O         0.0000000000         0.0000000000       -27.2782264738     -193.7627002862     -140.6829072759
atom         5.0020400000        5.7693000000       11.0045000000 O         0.0000000000         0.0000000000        24.1923804098        1.4600095477      144.6642793550
atom         9.6261400000        2.1675400000       10.7783000000 O         0.0000000000         0.0000000000        53.0548372154      -49.6661938195      -69.9498507478
atom         3.5670400000        1.7502500000        5.0536800000 O         0.0000000000         0.0000000000        33.5797532449      228.1283678125       40.6707842946
atom         8.6536700000        8.3179500000        9.9125100000 O         0.0000000000         0.0000000000       117.6726563297      115.1285233613       82.3464136166
atom         7.0056800000        1.4886600000        7.9202900000 O         0.0000000000         0.0000000000       168.5922110933     -102.2831991182      100.2083804872
atom         9.3116300000        5.5746400000       12.6729000000 O         0.0000000000         0.0000000000      -162.5747741032      123.9941585170     -107.6879570781
atom         2.2270900000       10.0013000000        7.5439200000 O         0.0000000000         0.0000000000      -140.6482718831      -26.2220093348     -125.8200950882
atom        10.0562000000        2.5913100000        2.7958300000 O         0.0000000000         0.0000000000       -17.8078781674       -6.6270592420      106.1302501950
atom         2.1520700000        0.2211300000       10.1121000000 O         0.0000000000         0.0000000000       -80.5752563341      177.3440484955       34.7674903805
atom         9.9142900000        8.4053800000        4.6947800000 O         0.0000000000         0.0000000000      -112.1506880081      -37.7369214207      -75.9609459765
atom         7.9686700000       10.3081000000        0.5651500000 O         0.0000000000         0.0000000000       151.3676331472      -27.2225377640     -101.6387048522
atom         1.4249500000        2.4032000000       10.4097000000 O         0.0000000000         0.0000000000        32.9041531988     -171.8565469787       10.0324337441
atom         1.6811100000        5.4227400000        0.4526300000 O         0.0000000000         0.0000000000       205.0635820538      120.8697546804      -14.4470578730
atom         0.0286100000        7.9151300000        8.6000800000 O         0.0000000000         0.0000000000         6.8018503185       58.4545176186      155.2295075192
atom        10.3798000000        4.7073700000        1.8824900000 O         0.0000000000         0.0000000000        28.5397042185      151.6823639320       96.8745370285
atom         7.9445200000        4.9603500000        2.2792600000 O         0.0000000000         0.0000000000      -107.2626203069       52.1356550094      -86.9827331615
atom         8.6483000000        7.5639600000        1.1839200000 O         0.0000000000         0.0000000000       100.1193446629       49.2103149993      139.3664530734
atom         1.7988100000        2.7679400000        2.8899700000 N         0.0000000000         0.0000000000       130.4616778146      158.6686118664      -76.8866005602
atom         5.3025100000        8.2274200000        2.8497400000 N         0.0000000000         0.0000000000       206.8639609423      143.5331583615     -293.9425452342
atom         3.2981900000        9.2811100000        0.7325600000 N         0.0000000000         0.0000000000       -91.2012006486       30.1778203104       90.5810391534
atom         3.7404400000        6.2979600000        4.8390600000 N         0.0000000000         0.0000000000       119.3142728116     -127.9019631159     -228.9692589412
atom         3.4330600000        0.2015500000       12.0263000000 N         0.0000000000         0.0000000000       -38.1493213863      145.9217790090       54.1296143966
atom         8.0729400000        9.9923100000        5.7052500000 N         0.0000000000         0.0000000000       367.8337234582      191.5777931843      113.6717047017
atom        10.8103000000        2.3462300000        7.9143200000 N         0.0000000000         0.0000000000       277.9380792436      -46.4882978254     -131.1609209026
atom         0.2993300000       10.4439000000        3.3197800000 N         0.0000000000         0.0000000000      -187.5135285752     -147.0901786987     -186.0678235751
atom         2.1981900000        7.4601200000        2.6918700000 N         0.0000000000         0.0000000000       -74.1493492237     -188.6503826308       -6.4073191678
atom         1.3384200000        5.1478500000        7.7500700000 N         0.0000000000         0.0000000000        19.2014736521     -148.2815493471      171.4491048958
atom         5.0795700000        3.4808700000        1.2779500000 N         0.0000000000         0.0000000000        69.0351564362      -13.7589843581      -55.6631891750
atom         8.8573400000        5.4880800000        9.5705100000 N         0.0000000000         0.0000000000       141.5990097234      -48.1358947758      -52.9202914621
atom         8.7782800000        2.4575100000        0.7951400000 N         0.0000000000         0.0000000000      -113.0626325842       12.7569292375     -249.6421630963
atom         8.8694900000        7.2824500000        7.1735100000 N         0.0000000000         0.0000000000       147.0532536615      289.9736898981       71.5967248270
atom         4.0814200000        9.3939000000        5.3092200000 N         0.0000000000         0.0000000000      -150.4280905911       39.3267090685     -241.5682203608
atom         0.9124500000        6.0395500000       10.5548000000 N         0.0000000000         0.0000000000      -150.7876318679     -212.9959247426       98.9491341753
atom         0.1775900000        1.3087400000        0.4346700000 N         0.0000000000         0.0000000000      -116.5773823131     -199.2589102500      -88.0024690832
atom         1.4720700000        4.3948500000        8.5646000000 N         0.0000000000         0.0000000000       -30.3220460520      148.2117629061     -176.9455991371
atom         6.2320200000        1.0452100000       12.3048000000 N         0.0000000000         0.0000000000       127.5232234239      -38.6008945443     -182.5642257233
atom         4.8441800000        5.4497100000        2.8797300000 N         0.0000000000         0.0000000000      -143.4756098137       62.5247789448      169.0666598253
atom         3.2861500000        2.1586300000        0.4436200000 N         0.0000000000         0.0000000000       -47.6494086467     -261.9683686514     -264.7270415182
atom         6.2315300000        7.9402100000        5.1188400000 N         0.0000000000         0.0000000000       132.8519684380      -13.3215046529      177.4230449007
atom         1.6816600000        4.4594400000        5.2678400000 N         0.0000000000         0.0000000000      -214.3494692953      386.8767771203        5.5117404781
atom         0.0320000000        7.6265600000       11.9307000000 N         0.0000000000         0.0000000000       -12.2940802510       47.9888158017       96.5442312064
atom         2.4783800000        3.5627400000        2.5034600000 N         0.0000000000         0.0000000000      -140.1881840008     -152.6564624078       78.9123302358
atom         4.0645100000        1.2895000000        7.9462200000 N         0.0000000000         0.0000000000        -6.2924220602       -2.0062351824       59.9465966696
atom        10.0460000000        4.5779700000        6.0933900000 N         0.0000000000         0.0000000000      -197.5478995352     -134.6393793536      125.8349814766
atom         8.0140100000        3.5896700000        7.1099200000 N         0.0000000000         0.0000000000       358.9191728189       95.0625610562     -159.6790314694
atom         4.6540400000        1.4985300000        2.3559300000 N         0.0000000000         0.0000000000      -152.6767269543      -74.3103632340       67.9467636403
atom         6.8866100000        2.6655400000        3.7421200000 N         0.0000000000         0.0000000000        72.8229379462       37.9071014401       48.6283877585
atom         5.8401100000        3.2337500000        0.5574700000 N         0.0000000000         0.0000000000       -59.5794816262       33.4967574677       54.2039428192
atom         3.4964100000        9.5312600000        4.3392000000 N         0.0000000000         0.0000000000       148.1369722516      -34.4889598835      250.0676448904
atom         1.8014400000        6.4278100000        2.6361900000 N         0.0000000000         0.0000000000        69.2318759583      186.4982289186       16.5920166452
atom         3.6849000000        1.1085000000        2.6994800000 N         0.0000000000         0.0000000000       160.8574066165       57.3593990899      -47.8384146560
atom         0.5208100000        6.7744900000        5.5473500000 N         0.0000000000         0.0000000000        18.4678898977     -183.9968304193       -0.9152930304
atom         9.8367000000        5.1692500000        9.1945500000 N         0.0000000000         0.0000000000      -148.7497362443       47.3769204427       52.2052415332
atom         8.3110200000        2.5173800000       12.9073000000 N         0.0000000000         0.0000000000       111.8767292007       -7.0517332622      227.0727574177
atom         9.3400800000        8.3187000000        7.4086000000 N         0.0000000000         0.0000000000      -132.0815918643     -295.9428582379      -63.6938408793
atom         7.7296800000        3.1203500000        4.2382400000 N         0.0000000000         0.0000000000       -71.7366028020      -33.1609498635      -46.5843533486
atom         0.2906700000        5.1913300000       10.9856000000 N         0.0000000000         0.0000000000       148.6404397094      198.1611891730     -107.4658183334
atom        11.0225000000        0.4353700000       13.1162400000 N         0.0000000000         0.0000000000       138.6991035690      206.8185379965      111.3941565696
atom         6.9152200000        7.8938700000        5.9954500000 N         0.0000000000         0.0000000000      -143.6235378895        4.4014364145     -167.4541410566
atom         6.8830400000        0.8899000000       11.4116000000 N         0.0000000000         0.0000000000      -129.9512553232       32.8138345990      176.7390356652
atom         0.8988000000        9.8043600000        5.5894700000 N         0.0000000000         0.0000000000       143.8998305195       20.5384367689      320.7432782259
atom         0.2541300000        3.4965500000       12.9496000000 N         0.0000000000         0.0000000000      -103.9588946575       36.2717195785        2.0644294060
atom         2.5139000000        9.6200000000        1.4105100000 N         0.0000000000         0.0000000000        98.9149370820      -38.0031696819      -95.6127031177
atom         6.5857100000        6.7416200000        8.8231100000 N         0.0000000000         0.0000000000       -26.8913384100      107.5492539534      101.3554372523
atom         0.0266500000        7.8835400000       12.9803000000 N         0.0000000000         0.0000000000         4.1960429738      -34.4870405842     -105.1962450656
energy    -32591.6499715663
charge 0
end
begin
comment generated by PY
lattice        11.4200000000         0.0000000000         0.0000000000
lattice         0.0000000000        10.5800000000         0.0000000000
lattice         0.0000000000         0.0000000000        13.1400000000
atom        10.3024000000        7.1108200000        4.6245700000 H         0.0000000000         0.0000000000       -25.1160476688      109.3362887070       -7.4496048228
atom         1.4375000000        8.3753600000        9.9961800000 H         0.0000000000         0.0000000000       -33.1845607399      118.0648056824      -25.5687550091
atom         2.1918100000       10.4056000000        2.2210000000 H         0.0000000000         0.0000000000       -26.2699357319       -8.3623813802       69.8106489766
atom         6.5484600000        7.6204200000       11.9083000000 H         0.0000000000         0.0000000000      -126.7893842480       35.7708077400       93.0491130548