begin
comment generated by PY
lattice        11.4200000000         0.0000000000         0.0000000000
lattice         0.0000000000        10.5800000000         0.0000000000
lattice         0.0000000000         0.0000000000        13.1400000000
atom         7.9650600000        5.5246200000       11.5430000000 H         0.0000000000         0.0000000000        14.9269821050      129.7751434105      -20.1495070211
atom         7.5527500000        3.4456200000       12.6776000000 H         0.0000000000         0.0000000000       112.7145814211        2.8621321460       76.7202526686
atom         3.4061800000        7.8607200000        1.4580500000 H         0.0000000000         0.0000000000       -79.8916582424      -11.9591911138      -94.9340955365
atom         9.4905100000        7.4169100000        4.9820000000 H         0.0000000000         0.0000000000       -74.3804510126       87.7561355919       70.2550136000
atom         2.3730400000        2.0865800000        6.9310300000 H         0.0000000000         0.0000000000       126.6375261259       30.7946741049      -38.7938639593
atom         3.3649700000        6.4006900000        7.6391000000 H         0.0000000000         0.0000000000       -73.2633686220       84.2484874177      -75.1620658274
atom         7.8193600000        2.7295200000        6.1738900000 H         0.0000000000         0.0000000000        85.5727694150       45.3544456514       95.7606478056
atom         1.9492700000        1.5744300000        1.2459700000 H         0.0000000000         0.0000000000        65.8845658904       43.3585600939     -114.8047153766
atom         9.0720300000        9.0623600000       11.8245000000 H         0.0000000000         0.0000000000      -122.2291600740      -31.7416704526       52.4989318467
atom         8.0592100000        3.7454700000        1.2174900000 H         0.0000000000         0.0000000000        55.4389285645      -38.9149817914     -124.0949981293
atom         3.2117100000        7.5291600000       12.7865000000 H         0.0000000000         0.0000000000       -67.4941506896       26.8837654521      123.1363967444
atom         9.3086200000        8.2780000000        6.5884700000 H         0.0000000000         0.0000000000       -62.4812658191      -23.5885978049     -127.3240876000
atom         3.5011700000        2.5864400000        5.5229100000 H         0.0000000000         0.0000000000        -6.7286711528      -39.7866264631      137.7417839232
atom         3.0191900000        7.0127200000        5.9180100000 H         0.0000000000         0.0000000000       -35.7564377063       16.9118228977      136.3133948693
atom         8.0718100000        2.9586600000        7.9501500000 H         0.0000000000         0.0000000000        60.7246397750       12.8757986801     -119.8330206766
atom         1.7589200000        2.1745100000       12.6687000000 H         0.0000000000         0.0000000000        92.8141967892      -34.2746354303       92.5831862224
atom         8.0307300000        9.3539200000        0.1406500000 H         0.0000000000         0.0000000000         1.7264138988      -75.8524220911     -119.3653294663
atom         8.8055200000        3.8683500000       10.8863000000 H         0.0000000000         0.0000000000        99.9713139620       36.3551006412       80.9000153296
atom         1.8969100000        6.8949800000        2.9779700000 H         0.0000000000         0.0000000000       -79.1547052066      -22.4254346575      -94.9646878939
atom         7.7324400000        6.6664300000        3.7839600000 H         0.0000000000         0.0000000000       -85.9244120501       42.8950319696       91.4615865197
atom         3.0953000000        2.9103900000        9.3280000000 H         0.0000000000         0.0000000000       118.0836134847       27.3742662607      -57.3537801979
atom         3.1255200000        7.9448300000        9.5741800000 H         0.0000000000         0.0000000000       -77.1146695536       73.3402862049      -89.1970726411
atom         9.4483100000        1.9095600000        4.7738000000 H         0.0000000000         0.0000000000        87.2413608696       26.7382688501       93.2540137582
atom         3.3763000000        0.1750000000        1.9498000000 H         0.0000000000         0.0000000000        77.1686102737       29.2619888236     -106.2456379488
atom         8.1662600000        8.5263300000        9.7176100000 H         0.0000000000         0.0000000000      -120.9177706374      -15.6963486925       58.9221379234
atom        10.2237000000        4.9367600000       10.9299000000 H         0.0000000000         0.0000000000       -51.9139114469     -101.3625789742       73.7471739991
atom         0.5988800000        5.7887700000        2.3520600000 H         0.0000000000         0.0000000000        70.5443644263      115.4650605088      -29.0413746101
atom         6.1261700000        6.3541000000        4.7497300000 H         0.0000000000         0.0000000000       102.1766732807       85.4079485007      -24.0893894005
atom         4.5462600000        4.0031300000        9.4452300000 H         0.0000000000         0.0000000000       -46.3543761237     -103.7599890783      -72.1882474733
atom         2.5046300000        9.6047900000        9.3375500000 H         0.0000000000         0.0000000000        -8.9983696803     -124.3995279649      -61.4582887240
atom        11.1478000000        1.5623400000        5.4877300000 H         0.0000000000         0.0000000000      -112.2624234382       77.1642337507        8.6975222013
atom         4.6857400000       10.0780000000        0.9843300000 H         0.0000000000         0.0000000000       -63.8377505059      112.5116412443        8.2458539157
atom         6.3818900000        8.6690400000        9.4110500000 H         0.0000000000         0.0000000000        91.8556144802      -38.4927481714       97.7980866326
atom         8.8204700000        1.7394300000       11.3036000000 H         0.0000000000         0.0000000000        95.4087293648        7.2567932794       92.3085511996
atom         1.9967200000        8.9766500000        2.5701300000 H         0.0000000000         0.0000000000       -98.1319377909        9.2846270584      -87.6381575901
atom         8.1049800000        8.8319600000        2.9118600000 H         0.0000000000         0.0000000000       -61.7639905728       44.5249601835      104.0123955288
atom         3.1880300000        0.8588700000        8.6384800000 H         0.0000000000         0.0000000000       127.3612851050        4.3765271545      -40.2445855230
atom         1.9001900000        6.1634400000        9.1114900000 H         0.0000000000         0.0000000000       -98.5603926786       68.8970617176      -63.3273815107
atom         8.7200800000        4.0222900000        4.6446200000 H         0.0000000000         0.0000000000        80.0719329219       53.0970592919       89.9966581165
atom         3.4216200000        2.4246200000        2.7778100000 H         0.0000000000         0.0000000000        86.1415022486       29.2625240146     -103.1784762676
atom         9.0291800000        6.7442100000       10.7207000000 H         0.0000000000         0.0000000000      -108.6331199161      -12.6519922859       78.2409214934
atom        10.2706000000        0.8753500000       12.0672000000 H         0.0000000000         0.0000000000       -70.1162531204      118.5289388318       -0.6287590662
atom         0.4877700000        9.8946100000        1.7994000000 H         0.0000000000         0.0000000000        85.8735201249     -101.2251712242       -4.1127525144
atom         7.1699000000       10.2339000000        3.5462300000 H         0.0000000000         0.0000000000        51.8079809888     -124.3105803477       36.6645661541
atom         4.7831800000       10.5319000000        8.5307600000 H         0.0000000000         0.0000000000       -65.9995740972      114.6928523171      -38.4837848446
atom         0.1041000000        6.2716600000        8.9095400000 H         0.0000000000         0.0000000000       114.8397111059       57.1485573303      -48.5384593774
atom         9.7632100000        5.4388400000        4.8944300000 H         0.0000000000         0.0000000000       -25.9206452223     -115.6512710158       65.1193029416
atom         4.8411100000        3.5125600000        2.1721300000 H         0.0000000000         0.0000000000       -85.4470967009     -110.5637756667      -31.5091316750
atom         8.4219200000        3.4569400000        0.2165700000 C         0.0000000000         0.0000000000       102.0601537258      -26.0628085301      -19.1187628384
atom         2.7088800000        7.6689300000        0.6210600000 C         0.0000000000         0.0000000000      -158.3949022650      -37.8852535026       20.8031539485
atom         8.8645000000        8.0741000000        5.5963600000 C         0.0000000000         0.0000000000      -127.8016147805       30.4666322272      -35.9580953187
atom         3.4102700000        2.3161600000        6.5903300000 C         0.0000000000         0.0000000000       125.2073159221        0.6315289399       94.5912472868
atom         2.7731600000        7.0852200000        6.9981600000 C         0.0000000000         0.0000000000      -103.4424812829       95.7954663158       62.0590715643
atom         8.5136600000        3.0711700000        6.9563300000 C         0.0000000000         0.0000000000       114.9662183169       30.0392258066      -38.0307627779
atom         2.4667800000        1.9188700000        0.3330900000 C         0.0000000000         0.0000000000       131.4568583084        7.1088068893        3.9056746824
atom         8.1039400000        8.8132000000       12.3118000000 C         0.0000000000         0.0000000000       -72.8479170564      -72.6955937826      -43.8511791222
atom         9.7079700000        4.1463400000       11.4537000000 C         0.0000000000         0.0000000000        58.5473310130     -106.6610227292      145.2341872266
atom         1.2119300000        6.6677000000        2.1359700000 C         0.0000000000         0.0000000000        12.7190574650       90.0615601951     -125.5159137450
atom         6.9862000000        6.9838700000        4.5332700000 C         0.0000000000         0.0000000000        12.5870854376      216.7817662437      121.8705849522
atom         4.0817700000        3.1643700000        8.9021000000 C         0.0000000000         0.0000000000        60.0700108186      -84.2211779379     -114.6705510457
atom         2.4828200000        8.5829600000        8.9212700000 C         0.0000000000         0.0000000000       -80.1024947471      -44.7778564781      -83.2864070213
atom        10.2315000000        2.1514900000        5.5005500000 C         0.0000000000         0.0000000000        -8.6497719044      184.1115270410      138.5912273244
atom         4.0832300000        0.3780000000        1.1301700000 C         0.0000000000         0.0000000000        17.7490856523      142.2949821502      -67.1729045511
atom         7.1526400000        8.4038600000       10.1459000000 C         0.0000000000         0.0000000000       -32.7045587899      -48.8185151963      133.8394526839
atom         9.6537300000        1.7928100000       12.0373000000 C         0.0000000000         0.0000000000        20.1638603236      121.7393082990       58.6226848185
atom         1.1808700000        9.0586000000        1.8287100000 C         0.0000000000         0.0000000000       -40.2103516808     -196.9936407928     -166.0268434692
atom         7.5935600000        9.2489200000        3.7867700000 C         0.0000000000         0.0000000000         4.9901863773      -68.9251014421      101.8577353464
atom         4.2330600000        0.8633000000        8.2998000000 C         0.0000000000         0.0000000000        80.3805825486      139.5739486173      -80.3406541429
atom         1.0644100000        6.6946900000        8.6306500000 C         0.0000000000         0.0000000000        31.0145358287      164.9973900925      -80.7722022987
atom         9.4651400000        4.4773900000        5.3238200000 C         0.0000000000         0.0000000000        40.1488155939     -110.5103332801       75.1436304404
atom         4.1345400000        2.6882900000        1.9519200000 C         0.0000000000         0.0000000000        -5.1646572537      -59.9462337971     -146.3102273665
atom         8.1270000000        6.5664700000       11.3239000000 C         0.0000000000         0.0000000000      -127.5130217347       97.8220036140       40.7816498072
atom         0.1379400000        4.8169600000        0.2342600000 O         0.0000000000         0.0000000000      -273.6804764917       37.1910034143        9.2715951384
atom        10.8862000000        7.0476900000       12.0394000000 O         0.0000000000         0.0000000000       220.1135829753     -201.7083578534       25.6034595033
atom         5.8126500000        7.1490900000        6.8803900000 O         0.0000000000         0.0000000000       286.4234611092       -3.1293508734      -12.1967892660
atom         5.9000900000        4.6696200000        7.5868900000 O         0.0000000000         0.0000000000      -145.7789037106     -203.7037455971     -149.0164094052
atom         1.3446900000       10.0930000000        7.0379400000 O         0.0000000000         0.0000000000       193.6903801162     -173.2168593765      -82.1757669933
atom         9.6530600000        1.5132800000        8.8394200000 O         0.0000000000         0.0000000000       147.1651139921       81.5940732220     -236.3096400824
atom         5.2254700000        0.7375700000       11.8952000000 O         0.0000000000         0.0000000000      -284.0922486701       41.3649442507       27.4652375201
atom         4.7413700000        9.1137500000       10.9819000000 O         0.0000000000         0.0000000000       208.2948438878      -38.2887196603      215.4354339774
atom         9.9381500000        5.3726700000        1.5720900000 O         0.0000000000         0.0000000000        73.4413369716     -100.5371380752     -245.2455354899
atom         1.4181800000        6.2172300000       11.4905000000 O         0.0000000000         0.0000000000      -271.1452915333        6.0800183608      148.6108171419
atom         7.8176600000        7.0952900000        7.8241800000 O         0.0000000000         0.0000000000      -173.9209882664       22.4142628539     -208.9159484182
atom         5.7330700000        3.2729100000        5.9409500000 O         0.0000000000         0.0000000000      -110.3910642907      123.8020594734      224.5014160547
atom         2.5088000000        9.2835100000        5.4253300000 O         0.0000000000         0.0000000000       -69.3942886740        7.2987054716      279.4880576079
atom         0.1104800000        1.6247600000        7.6967300000 O         0.0000000000         0.0000000000      -280.1681674443       34.6751195730       16.6832178846
atom         3.3058100000        1.0854100000       10.9182000000 O         0.0000000000         0.0000000000       155.3278407863      -35.5045348081      255.6244980602
atom         5.3676300000        8.5032600000       12.9724000000 O         0.0000000000         0.0000000000        62.6971052826      113.9224937157     -265.3886155854
atom         9.7075100000        2.4082600000        2.4443900000 O         0.0000000000         0.0000000000        80.0403737202      -55.2144757299     -283.4037823518
atom         2.1000800000        8.9725200000       11.6332000000 O         0.0000000000         0.0000000000      -150.1691950773       67.8742120049      209.7869637626
atom         8.2485400000       10.1040000000        7.0322200000 O         0.0000000000         0.0000000000       -36.0957307984       60.7392569409     -288.4666770013
atom         4.6913600000        0.7862700000        4.9005500000 O         0.0000000000         0.0000000000        25.8255529952      -76.8629560293      263.0712224651
atom         0.9102800000        6.8062800000        5.1213000000 O         0.0000000000         0.0000000000       -76.7146367397      -26.0200607653      270.8231089529
atom         9.1395400000        5.1306500000        8.8780600000 O         0.0000000000         0.0000000000       134.9895798421      -64.1638156022     -275.6691708332
atom         3.7225200000        3.5953500000       11.6588000000 O         0.0000000000         0.0000000000       104.0714967832      -15.5833474984      287.0997687414
atom         7.4650400000        7.5166600000        1.4961400000 O         0.0000000000         0.0000000000        14.2003766518     -135.9953584648     -257.9977046623
atom        11.2077000000        1.8174200000        0.9991700000 O         0.0000000000         0.0000000000      -271.9515459430       74.7306012998       59.9841377024
atom         0.5297000000       10.1179000000       12.6765000000 O         0.0000000000         0.0000000000       203.3359180614     -178.2577956384       -8.8440276597
atom         7.6902300000        0.7980600000        5.3506200000 O         0.0000000000         0.0000000000        89.1506059609     -244.7457224512      121.2257488698
atom         5.3917000000       10.0263000000        6.4990400000 O         0.0000000000         0.0000000000      -131.1578854377      226.2123246827      -96.1303250016
atom        10.7648000000        6.5676900000        6.6424900000 O         0.0000000000         0.0000000000       276.0031509391       33.5679245042      -73.9687095541
atom        10.9178000000        4.6206800000        7.7135700000 O         0.0000000000         0.0000000000      -298.0246334453       51.0773469465       26.6300042052
atom         5.2564400000        4.0074300000        0.0085700000 O         0.0000000000         0.0000000000      -257.4552790060     -111.1677507942      -79.8390180145
atom         6.9244200000        5.7779400000        0.3405700000 O         0.0000000000         0.0000000000       137.8513361022      239.1708527891        2.1347089317
atom         0.5856800000        1.6886000000       10.8623000000 O         0.0000000000         0.0000000000      -117.9658100573      261.2368371398       34.9982927139
atom         9.9917000000        8.6194100000        1.2178400000 O         0.0000000000         0.0000000000       135.6244987124     -159.3880936702      188.4669653633
atom         5.0756300000        9.3211400000        3.0211400000 O         0.0000000000         0.0000000000        72.5460543297     -171.3476402779      204.7528372043
atom         6.8366900000        1.0824700000        8.6287600000 O         0.0000000000         0.0000000000      -179.8779757491      166.5893690773      136.8385785058
atom        10.4227000000        8.1846400000        9.1573300000 O         0.0000000000         0.0000000000       246.1691198984      105.7892004939       28.6493774090
atom         0.1609600000        4.4880700000        3.7195700000 O         0.0000000000         0.0000000000         2.1384230398     -154.2091431509      243.9419763509
atom         6.6519600000        2.2926300000        2.3026400000 O         0.0000000000         0.0000000000      -133.1759087971     -206.2809922226     -123.4161442591
atom         6.1208800000        5.1028800000       10.6369000000 O         0.0000000000         0.0000000000        -9.9085876805      262.6875636277      -83.4171639319
atom         0.6350300000        3.8419400000       10.5130000000 O         0.0000000000         0.0000000000      -128.4145485173     -218.5371513510      104.8879134269
atom        10.1617000000        7.3637800000        3.0588900000 O         0.0000000000         0.0000000000        88.1725887269      111.1268905599     -240.8728151478
atom         4.5121300000        7.7912700000        4.4722900000 O         0.0000000000         0.0000000000       200.0395085453      156.6413565568     -135.2004235055
atom         6.4528400000        2.5882900000       10.1885000000 O         0.0000000000         0.0000000000       -86.1018635394     -156.1260263260     -218.5653442450
atom         0.2511900000        9.9016100000        9.6740600000 O         0.0000000000         0.0000000000       -16.2598370291     -277.6626048919      -95.2246733317
atom         1.2261100000        3.2530400000        5.2055300000 O         0.0000000000         0.0000000000      -232.1027454473      113.2210388898     -108.1879103638
atom         6.6598400000        0.3050900000        1.3820900000 O         0.0000000000         0.0000000000      -150.5066982776      242.8513864881       79.3487199431
atom         5.0918100000        6.7349600000        9.6263500000 O         0.0000000000         0.0000000000       223.1085142396      -91.8824494265      145.3987068636
atom         9.4293300000        4.4001800000       12.8402000000 N         0.0000000000         0.0000000000       -67.5615611551      -87.4295786849      -82.4871591441
atom         1.9458900000        6.5426200000        0.9490400000 N         0.0000000000         0.0000000000         7.4324649831      167.9898141060      127.2756413300
atom         7.5975600000        7.4347600000        5.7478400000 N         0.0000000000         0.0000000000        99.9291566428      -50.7887286091     -109.1093149265
atom         3.9328800000        3.4537700000        7.4181200000 N         0.0000000000         0.0000000000        52.5222746358     -139.2097096803       37.3317757704
atom         2.9498500000        8.4646900000        7.5386800000 N         0.0000000000         0.0000000000      -132.3708691689      -91.5503416255       38.3835892820
atom         9.7075300000        2.3075700000        6.8271200000 N         0.0000000000         0.0000000000       -92.2321314261        1.5554920549     -104.0369752964
atom         3.3889400000        0.8320800000       13.1029000000 N         0.0000000000         0.0000000000       -12.0874997122       72.9956801548      121.9882192693
atom         7.0403500000        9.1734800000       11.3789000000 N         0.0000000000         0.0000000000        63.2209608741     -157.5076208851      -15.4121531818
atom         9.0530200000        2.1396800000        0.2209200000 N         0.0000000000         0.0000000000        77.7404516448      145.3527590316      -88.4043775830
atom         1.7230200000        8.7026400000        0.5401800000 N         0.0000000000         0.0000000000       112.0807255734        1.4504815968      131.6276713933
atom         8.6041800000        9.3286300000        4.8678500000 N         0.0000000000         0.0000000000      -152.1843739812      -92.9196934263       38.2914929673
atom         4.2708600000        1.2069400000        6.9330200000 N         0.0000000000         0.0000000000      -121.0211305199       29.8897111840       84.8034243570
atom         1.3642800000        6.8810300000        7.2365100000 N         0.0000000000         0.0000000000       111.8723285226      -73.9925348363       79.4240291985
atom         8.8688000000        4.4514600000        6.6599900000 N         0.0000000000         0.0000000000        75.7519188211     -143.4254830442      -52.5897067819
atom         3.2945600000        3.0534000000        0.7470100000 N         0.0000000000         0.0000000000        62.0490411941     -164.8215610122       24.8557311518
atom         8.1000500000        7.3461800000       12.5214000000 N         0.0000000000         0.0000000000       -27.3520809573       49.6981768871      -94.9591095079
atom        10.4673000000        2.9530900000       11.6496000000 N         0.0000000000         0.0000000000      -148.1747389573       -1.5014160935      -54.5288769809
atom         0.4278400000        7.8253200000        1.8252200000 N         0.0000000000         0.0000000000       116.9574804322       13.3524131895      120.1895690342
atom         6.5699300000        8.3540100000        4.2629000000 N         0.0000000000         0.0000000000        84.0994065807      -53.4693760580     -115.9253769640
atom         4.9002300000        1.9809800000        8.8209700000 N         0.0000000000         0.0000000000      -148.2217104935       -7.9906703540       17.7874689357
atom         1.1453800000        8.0695400000        8.9521200000 N         0.0000000000         0.0000000000       113.3001865141      -80.1413147002       21.3516317326
atom        10.5552000000        3.5416900000        5.3628100000 N         0.0000000000         0.0000000000      -120.2708067545      -40.1005297726      -69.1410512324
atom         4.8535300000        1.5095900000        1.4848000000 N         0.0000000000         0.0000000000      -125.4989246261      -25.7336098424       60.0324316455
atom         6.9897900000        7.0588300000       10.6282000000 N         0.0000000000         0.0000000000       129.2791106146       50.3348467445      -30.7312772597
atom        10.3097000000        4.9189100000        0.4918800000 N         0.0000000000         0.0000000000        86.0932590840        6.0378162646      127.6044190814
atom         0.3957900000        6.2657900000       12.1153000000 N         0.0000000000         0.0000000000        79.6409627721      185.1428369070     -146.2935924103
atom         7.0567100000        7.1873500000        6.8491900000 N         0.0000000000         0.0000000000       -60.6897309442        5.7646159381      136.8395307466
atom         5.3179000000        3.8316000000        6.9346700000 N         0.0000000000         0.0000000000       110.1424953680       28.3702321259      -20.0597897413
atom         2.1819300000        9.3540700000        6.5865100000 N         0.0000000000         0.0000000000       -45.2741119369       69.5465241870      -87.0229570282
atom        10.3074000000        1.7969600000        7.8060500000 N         0.0000000000         0.0000000000        89.3396859753      -62.0140886200      142.5496576142
atom         3.9916700000        0.9182300000       11.9368000000 N         0.0000000000         0.0000000000        69.5025883916      -19.4882892050     -139.8104033582
atom         5.5588000000        8.9408700000       11.8504000000 N         0.0000000000         0.0000000000      -110.0971332183      -62.4100093151        4.0821909268
atom        10.0812000000        2.1487500000        1.3061600000 N         0.0000000000         0.0000000000        83.7702335680      -18.6924164940       99.8639610962
atom         1.4498400000        9.2926600000       12.6349000000 N         0.0000000000         0.0000000000       -36.7516449023       67.7191496416     -126.8295831075
atom         8.0965700000       10.3494000000        5.8581300000 N         0.0000000000         0.0000000000        -8.3827885548       80.8003459178       73.2083021800
atom         4.7933400000        0.4542600000        6.0929600000 N         0.0000000000         0.0000000000        67.9154699716      -91.7123701636     -118.4153591451
atom         0.5414700000        6.7107500000        6.3031200000 N         0.0000000000         0.0000000000      -125.2567555231       16.3503009439     -107.2000558892
atom         9.7169700000        4.8459900000        7.8313800000 N         0.0000000000         0.0000000000        94.1813534827      -57.5914496567      117.1395624726
atom         4.1881000000        3.5709800000       12.7859000000 N         0.0000000000         0.0000000000        61.9039420841       62.7027921151      -83.0821669571
atom         7.4901800000        6.8686600000        0.4260400000 N         0.0000000000         0.0000000000       -88.6639349732      -52.9261410857      130.8492777113
atom         0.0980800000        2.8195300000       10.9803000000 N         0.0000000000         0.0000000000       164.5407857846      -41.1501042403      -89.2893377650
atom        10.6209000000        7.9082600000        2.0295200000 N         0.0000000000         0.0000000000      -137.5298717968       42.6000747718       55.0800855481
atom         5.3692900000        8.5044100000        3.9050100000 N         0.0000000000         0.0000000000      -167.8276194130        1.4779393665      -51.6397237249
atom         6.0872200000        1.8692300000        9.2392200000 N         0.0000000000         0.0000000000       151.4901303698        3.9967703113       45.8858285531
atom         0.1285500000        8.7403800000        9.2860800000 N         0.0000000000         0.0000000000      -134.5536822224      107.5654774645       39.2654508544
atom         0.1879300000        3.7781400000        4.7497600000 N         0.0000000000         0.0000000000       152.5442667505       27.7582108736     -103.6710446337
atom         6.0647100000        1.3572900000        1.7424600000 N         0.0000000000         0.0000000000       193.5858265617      -14.0519909349       29.2012234865
atom         6.0558500000        6.2796700000       10.2686000000 N         0.0000000000         0.0000000000      -121.7861193440     -101.8319249778      -30.5074899031
energy    -35646.0030270413
charge 0
end
begin
comment generated by PY
lattice        11.4200000000         0.0000000000         0.0000000000
lattice         0.0000000000        10.5800000000         0.0000000000
lattice         0.0000000000         0.0000000000        13.1400000000
atom         6.4511700000        9.4554900000        2.6255300000 H         0.0000000000         0.0000000000         8.3539552925      -35.2206261847      -24.9373591362
atom         1.8906800000        4.1415600000        1.1629600000 H         0.0000000000         0.0000000000      -123.6027045110        1.3132792296       87.5826872712
atom         8.1591800000        6.5911200000        3.1866100000 H         0.0000000000         0.0000000000       -45.9655172721      -20.5836408059      135.3741156849
atom        10.2747000000        0.9884800000        5.4524800000 H         0.0000000000         0.0000000000        89.7576095171      116.2224176906      -14.1479119316