begin
comment generated by PY
lattice        11.4200000000         0.0000000000         0.0000000000
lattice         0.0000000000        10.5800000000         0.0000000000
lattice         0.0000000000         0.0000000000        13.1400000000
atom         2.6021200000        5.7332600000        8.8231000000 H         0.0000000000         0.0000000000       128.0878827688      -84.8641359251       28.6505771533
atom        10.5361000000        8.0983100000        2.9115000000 H         0.0000000000         0.0000000000        25.8772773488       18.5791275310      -41.5450984050
atom         4.0119900000        9.0692400000        9.1055500000 H         0.0000000000         0.0000000000       -14.4727238710      -92.5362823336      133.3752684685
atom         7.1368400000        6.0213000000        4.9481200000 H         0.0000000000         0.0000000000         9.7965815588     -164.1346604478       51.3358454082
atom         2.4230700000        7.2879400000        3.4585300000 H         0.0000000000         0.0000000000       106.7444119266      -10.2294903958      -55.4350579484
atom         8.9562200000        8.8802900000        9.2519800000 H         0.0000000000         0.0000000000       -38.0134773556       14.5657788844        0.5628692961
atom         8.9988900000        6.2492500000        7.8497600000 H         0.0000000000         0.0000000000        16.5007527964       -6.8299146965      -20.9383747760
atom        10.5034000000       10.0431000000       10.8195000000 H         0.0000000000         0.0000000000       -86.2447667248        3.1936655558       27.5498042607
atom         1.2906400000        4.3272700000       11.4545000000 H         0.0000000000         0.0000000000        84.0210611714      -88.4697236458      -45.7565200253
atom         5.3099400000        7.7378000000        4.1580200000 H         0.0000000000         0.0000000000         2.3527175444     -119.3900418572      128.2825008358
atom         4.3701800000        2.4959200000        5.7920100000 H         0.0000000000         0.0000000000      -140.3043643230      -92.1171938864      -37.9470104175
atom         2.9019300000        2.1941600000        6.2923300000 H         0.0000000000         0.0000000000        97.2854432952      -38.1490219587     -105.4744346536
atom         3.1907100000        5.2050000000        9.9635300000 H         0.0000000000         0.0000000000        35.7297547961      -23.7693083590     -122.8479749309
atom         3.7828400000        4.9570600000        4.6298400000 H         0.0000000000         0.0000000000      -102.0357788526     -106.6543603981       96.0250012683
atom         0.4957400000        5.8625900000        0.4607600000 H         0.0000000000         0.0000000000        40.5740770669       85.7160998996      110.5379298276
atom         1.0883100000        8.2432300000        2.9357200000 H         0.0000000000         0.0000000000      -158.7717616248        0.5733563982       24.1934628976
atom         8.6246600000        5.7907700000        6.4271000000 H         0.0000000000         0.0000000000       -13.0520681292      -80.8597594615      -51.4785291079
atom         2.0763000000        0.3624200000       10.8854000000 H         0.0000000000         0.0000000000       -24.2665510091      -91.8990242980       39.0685700813
atom         4.2831900000        8.2051100000       12.8050000000 H         0.0000000000         0.0000000000      -144.0172499142       15.2465122073       84.4864134698
atom         0.8763200000       10.1436000000        1.1689600000 H         0.0000000000         0.0000000000       -16.0052297078      -39.3961855089      -73.1682598565
atom         5.0642700000        2.3027100000        1.5390400000 H         0.0000000000         0.0000000000       -12.8252610470       -1.4286549357        2.5069450811
atom         9.9922800000        1.1815800000        9.5455900000 H         0.0000000000         0.0000000000      -119.7995737103      -35.6375943135      -50.5309066084
atom         5.0114800000       10.2271000000        5.9712700000 H         0.0000000000         0.0000000000      -100.5893340845      -33.2048004074     -108.2783262223
atom         3.4217100000        7.0100000000        2.1977200000 H         0.0000000000         0.0000000000       -32.9201916200       29.7117483436       84.1229248043
atom        11.0054000000        3.4643800000        4.6968700000 H         0.0000000000         0.0000000000         7.9854729374      -19.3733639325     -160.1206344713
atom         6.9674500000        7.8791800000       12.2266000000 H         0.0000000000         0.0000000000       -48.5835562525       31.0312544918       84.1010304355
atom         3.8475000000       10.3948000000        4.7209700000 H         0.0000000000         0.0000000000        -2.3999699428       52.7607692175       -9.3850275670
atom        10.2066000000        1.5893800000        1.2366900000 H         0.0000000000         0.0000000000      -127.5686556162       -3.1155944947      123.7616897847
atom         0.2760500000        7.0436500000        3.0559300000 H         0.0000000000         0.0000000000       -43.1345685015       87.1967567047       14.7181698833
atom         4.6321800000        7.1966800000        5.3482700000 H         0.0000000000         0.0000000000       -71.1699199299       29.5949943690       35.4542943698
atom         6.6095000000        6.9535600000       10.3548000000 H         0.0000000000         0.0000000000       -14.8892015685       -1.3884449973       -0.5349146649
atom         3.3458000000        5.3426800000        6.2920600000 H         0.0000000000         0.0000000000       -27.2269744181       54.9382057127       23.3825709643
atom         3.6481000000        8.4760600000       10.7027000000 H         0.0000000000         0.0000000000        28.9408465552       27.1436300737      -93.8658053738
atom         3.7826300000        9.5599300000        6.8402000000 H         0.0000000000         0.0000000000      -108.3073551596      -95.8748008319       33.1043794813
atom        10.9829000000        3.0116400000        2.8471600000 H         0.0000000000         0.0000000000        -8.7165836744       58.1227371310      161.1848865489
atom         3.1968500000        9.1229300000        0.5193400000 H         0.0000000000         0.0000000000        20.2520969542     -122.8298673048      -55.1292302124
atom         8.5493400000        3.9861000000        4.1582300000 H         0.0000000000         0.0000000000       -31.2202875008       25.2680520033     -106.8359408070
atom         2.6806700000        3.5648900000        5.2575700000 H         0.0000000000         0.0000000000        73.2956469894       82.7114939537      -14.3273846079
atom         4.7069500000        1.8867900000        2.3385300000 H         0.0000000000         0.0000000000        35.7850296226     -113.4690099795       31.6230604639
atom         6.9584300000        4.5965400000        4.5916700000 H         0.0000000000         0.0000000000       -17.3439339096      -27.5373936249      -49.6694752037
atom         8.7853400000       10.2872000000       11.4400000000 H         0.0000000000         0.0000000000       157.2805077269      -65.8554579362      -65.3559034960
atom         0.1931100000        9.8483400000        2.7414300000 H         0.0000000000         0.0000000000       -85.7382054910       91.1414200038       37.6952514738
atom         9.8973200000        0.5732800000        5.9366700000 H         0.0000000000         0.0000000000       -22.8420814419       22.7490266122      -43.6186826497
atom         1.7285500000        6.4337000000        1.3044000000 H         0.0000000000         0.0000000000      -155.1992394303       13.3592947850      -24.7444693681
atom         4.0766400000        3.4215000000        1.2956500000 H         0.0000000000         0.0000000000        91.4083113596      -63.2439835369       -4.4102357487
atom         2.1899800000        9.6245900000        7.1921500000 H         0.0000000000         0.0000000000       116.4499984887     -103.1715627272       22.6928317948
atom         6.1695000000        8.2921600000        0.8977500000 H         0.0000000000         0.0000000000        73.8817949898       -7.0801316413     -117.1275198494
atom         6.4317800000        4.0164100000       11.7233000000 H         0.0000000000         0.0000000000        23.3228798699      -49.6035290350       50.7313400068
atom         7.1977600000        6.5647800000        7.9135300000 C         0.0000000000         0.0000000000       -72.8505867363      -27.1119580755       24.5682662366
atom         0.2142800000        5.1070700000        8.5671500000 C         0.0000000000         0.0000000000       -94.2951955090        6.0483286053     -110.0466229528
atom         8.3001300000        4.2444100000        2.9613500000 C         0.0000000000         0.0000000000       105.7150477127       20.8258679644      -10.5313559050
atom        10.0615000000        6.3763800000        4.8214000000 C         0.0000000000         0.0000000000       -68.1124979147       86.1784306719        0.1348558362
atom         8.1281200000        1.7801600000        2.0015200000 C         0.0000000000         0.0000000000       149.9858108225      -85.7074490166     -150.1457659402
atom         1.2484800000        9.8795400000       12.3356000000 C         0.0000000000         0.0000000000        21.9854929494        8.9328649471       64.2181064633
atom         8.9910400000        0.4199500000        8.0947700000 C         0.0000000000         0.0000000000       -77.5487572219       62.3894859539     -130.6706147778
atom         5.2553200000       10.0230000000        2.5906700000 C         0.0000000000         0.0000000000        32.9466250257      150.8129222981       18.3010962775
atom         3.2242900000        0.0425300000        1.4468700000 C         0.0000000000         0.0000000000        38.6243479839      119.6725381009       -4.0513332289
atom         6.9468000000        3.2493100000        9.6092200000 C         0.0000000000         0.0000000000      -114.1273860098      -31.7524412400       29.0716133938
atom         4.8236200000        3.4998700000        7.2997500000 C         0.0000000000         0.0000000000      -168.1614842655      167.5897830238      -36.1287018737
atom         7.2515100000        8.5277100000       10.0268000000 C         0.0000000000         0.0000000000       205.9406633239        5.5335426071      -29.3772215116
atom        10.6012000000        0.7516800000        3.9746300000 C         0.0000000000         0.0000000000      -107.3730708631     -119.1538743605       17.0330611976
atom        11.1717000000        7.0872600000       11.7906000000 C         0.0000000000         0.0000000000        14.2303771547       49.7215680536      -34.9693493360
atom         2.9746700000        6.0076600000       12.1960000000 C         0.0000000000         0.0000000000        -9.6248851161      -14.4749631337      -67.2696893155
atom         5.2100900000        1.0242900000        7.9301000000 C         0.0000000000         0.0000000000        60.5969160157      -21.5381561060       64.6131622999
atom         0.9119200000        3.0761200000        0.5632600000 C         0.0000000000         0.0000000000       -26.9225260456     -161.3680457329      -34.2118711120
atom         7.6543000000        2.5434600000       12.1507000000 C         0.0000000000         0.0000000000      -166.1917508527       39.1491433721       -0.1756152972
atom         9.0528900000        6.3900600000       10.2995000000 C         0.0000000000         0.0000000000       -33.2139148802      -76.1927382389     -101.1341726608
atom         5.4724700000        4.6034600000        2.8680000000 C         0.0000000000         0.0000000000         5.5126434790      -12.0651895520      117.0018873636
atom         1.6194600000        4.8639900000        2.9036500000 C         0.0000000000         0.0000000000       -73.6105914982       15.8655557859      149.1303379677
atom        10.6395000000        2.3331900000       11.0635000000 C         0.0000000000         0.0000000000       -46.1445274289       26.4763671436      -51.1517576480
atom         2.4121400000        7.0524600000        6.4138700000 C         0.0000000000         0.0000000000       -56.5313286017       50.4423409537     -252.2932157723
atom         1.8811000000        2.7087600000       10.2816000000 C         0.0000000000         0.0000000000         4.9092579347      210.7411171927      -20.6879246855
atom         7.0691500000        1.5776400000        1.3842700000 O         0.0000000000         0.0000000000       190.5386145778       25.7047077389      135.2796735392
atom         1.3875500000        1.9677500000        0.7498400000 O         0.0000000000         0.0000000000       -80.4058348312      236.5722076479      -26.8940802945
atom         5.9943100000        5.6406500000        2.7325100000 O         0.0000000000         0.0000000000       -95.7798912408     -165.4399507072       -6.8607719851
atom         6.7989500000        8.3424300000        0.1014100000 O         0.0000000000         0.0000000000       -40.7019813618      -27.1687161212       12.4344099483
atom        10.3309000000        2.9379600000       10.0007000000 O         0.0000000000         0.0000000000        79.1067349706     -129.2549956407      247.8017724930
atom         7.2265900000        5.0000200000        5.2774800000 O         0.0000000000         0.0000000000        11.6342920197      180.6998725962       10.9054874273
atom         3.3086800000        6.2141900000        6.9422000000 O         0.0000000000         0.0000000000      -121.7190016048       59.8943135266     -108.1204342331
atom         9.7080100000        7.0404500000        9.5204500000 O         0.0000000000         0.0000000000      -114.6896380597     -109.9401676844      167.8273668609
atom        10.9673000000        5.9254000000       11.6088000000 O         0.0000000000         0.0000000000        36.0782173046      189.3538498847       36.4628700947
atom         5.8830900000        1.7116800000        7.2069900000 O         0.0000000000         0.0000000000      -125.7711879391     -129.9972627505      123.5324763104
atom         3.3306600000        7.2254400000        3.0993700000 O         0.0000000000         0.0000000000       -89.3173715170      -14.0001537704      -24.7270877868
atom         3.6734800000        0.8898300000        0.7553900000 O         0.0000000000         0.0000000000       -88.9297749429     -169.4719398202       98.0200302161
atom         8.3433800000        5.5061500000       10.6994000000 O         0.0000000000         0.0000000000       149.5583706444      180.3520251985      -52.5308312713
atom         3.1712500000        4.3989400000        5.3156600000 O         0.0000000000         0.0000000000        47.9830539978       46.9686302043      -44.2108248983
atom         1.0972700000        4.8494700000        9.2499800000 O         0.0000000000         0.0000000000      -140.9068958844       20.4185659188      -85.2118573455
atom         9.6982300000        9.6848000000       11.1009000000 O         0.0000000000         0.0000000000       -70.7840998003       71.2478040258       33.1894535805
atom         4.9459100000        3.0874000000        1.1406300000 O         0.0000000000         0.0000000000       -81.6542497075       39.0633601463       -2.2792885442
atom         1.4732700000        5.2048900000        4.0261500000 O         0.0000000000         0.0000000000        35.3985294522      -47.7678782409     -227.8363829634
atom         1.6437600000        2.1996300000        9.1376200000 O         0.0000000000         0.0000000000        58.7641206531       97.4679912539      270.0827631830
atom         3.3596800000        5.2704000000       13.0053000000 O         0.0000000000         0.0000000000       -66.6658476980      115.5865668596     -106.5468972142
atom        10.7227000000        5.3146900000        7.7329300000 O         0.0000000000         0.0000000000       214.5374903549      -45.0849614782      200.8848760401
atom         4.8263500000        0.3043700000        8.8097800000 O         0.0000000000         0.0000000000        67.7602999028      150.6961024917     -183.9969188804
atom         4.2759400000        9.9447900000        5.3031900000 O         0.0000000000         0.0000000000       114.9068575903      -38.7934241583      131.6596566955
atom        11.0462000000        3.6398300000        3.6709000000 O         0.0000000000         0.0000000000       -11.9258532340      -52.5321272994        8.0754578332
atom         0.7226300000        6.5086100000        1.2086100000 O         0.0000000000         0.0000000000       105.8933669316      -77.9464068159      -99.7955858905
atom         3.3024800000        8.2132900000        0.1640100000 O         0.0000000000         0.0000000000       134.8279548250       94.6595463000      -35.7487318362
atom         4.9383600000        3.6552200000        3.4222600000 O         0.0000000000         0.0000000000        85.6390117087      181.5323985146     -103.1447833156
atom         0.1468000000        3.8192800000        0.1347400000 O         0.0000000000         0.0000000000       100.8819553013      -68.2296850114       48.1856614492
atom         5.3468700000        6.9377700000        5.0065000000 O         0.0000000000         0.0000000000        71.3099327854       92.1496960723     -162.8788074830
atom        10.8320000000        1.7358000000       12.0609000000 O         0.0000000000         0.0000000000       -24.9523076230      110.5846080757     -189.8808542452
atom        10.9043000000        5.9269300000        5.4911800000 O         0.0000000000         0.0000000000      -137.0947265056       63.2780674493     -119.2140417867
atom         4.1046600000        8.3827400000        9.8921500000 O         0.0000000000         0.0000000000       -24.3240570574       68.4953005685      -41.2153404161
atom         8.3756300000        1.6139800000       11.9132000000 O         0.0000000000         0.0000000000      -116.8953445840      166.9866689398       50.4156348574
atom         1.5340100000        4.4519500000        1.8531200000 O         0.0000000000         0.0000000000        45.0524509053       16.9870409640       90.7668982783
atom         5.6344500000        8.8596000000        2.4908000000 O         0.0000000000         0.0000000000       -70.7534386368      186.2682721081       20.6065730411
atom         2.5983900000        6.5990500000       11.2290000000 O         0.0000000000         0.0000000000        64.7523849102     -106.5929083849      186.0019666202
atom         3.8485600000        2.9489000000        7.8020300000 O         0.0000000000         0.0000000000       197.1984111100       80.6779029620      -71.3901530061
atom         5.1545800000        4.5534300000        6.7194500000 O         0.0000000000         0.0000000000       -28.2080716506     -251.2624375903      135.8572864143
atom        11.3692000000        8.2565700000       11.8240000000 O         0.0000000000         0.0000000000       -46.3871961947     -260.9682741103      -11.6831323441
atom         3.5257100000        1.8915800000        5.5592600000 O         0.0000000000         0.0000000000        31.3391681863      125.7111773798      117.7587212086
atom         3.0041600000        8.8875500000        7.3169400000 O         0.0000000000         0.0000000000        -2.4382261784      195.2983644734      -56.3925454714
atom         9.1897000000        5.0307200000        2.5072900000 O         0.0000000000         0.0000000000      -152.2017944837     -115.0393015870       61.7897063342
atom         9.1340600000        7.0040000000        4.2913500000 O         0.0000000000         0.0000000000       203.1417649968     -147.0390424470      108.3958601710
atom         6.5942600000        2.2148600000       10.0498000000 O         0.0000000000         0.0000000000        75.2939779349      159.7304018549      -94.8335522979
atom         3.4412900000        5.0605500000        9.0251600000 O         0.0000000000         0.0000000000      -157.1466263639      120.5470659077      107.1996981603
atom         6.9167200000        4.3406200000        9.2437300000 O         0.0000000000         0.0000000000        29.1631487503     -143.3649818240       37.6214627300
atom         2.7584900000       10.0196000000        2.2975300000 O         0.0000000000         0.0000000000        35.9050240601       51.4992754568      -96.5901811067
atom         7.4148400000        3.5931300000        2.4314000000 O         0.0000000000         0.0000000000        87.0179688307       72.4963526945       55.1197716658
atom         1.5887000000        2.3335800000        3.3786400000 N         0.0000000000         0.0000000000       181.3662457472      -64.1700641029      -67.6526792474
atom         6.2928500000        0.3945900000       11.4960000000 N         0.0000000000         0.0000000000       -13.2152144588      -69.7592147235      138.7615336929
atom         1.4142600000        0.1392200000        5.4755800000 N         0.0000000000         0.0000000000      -118.2412426488     -164.5903890151      -49.6070386024
atom        10.0923000000        8.4941700000        6.7073300000 N         0.0000000000         0.0000000000        69.4667258981       22.7881058466      364.2632632229
atom        10.9042000000        0.1324200000        2.8855000000 N         0.0000000000         0.0000000000        17.3373862981       85.3198208402      270.2219178239
atom         1.8616200000        9.9991800000       11.2879000000 N         0.0000000000         0.0000000000      -144.2908270124       43.0727689988      240.7196837614
atom         6.6850500000        3.2416100000       12.3118000000 N         0.0000000000         0.0000000000       259.5092009171     -144.5355835907      -80.7841265091
atom         5.0566800000        0.5804600000        2.7240400000 N         0.0000000000         0.0000000000        15.7065882765     -202.2039116258      -65.7925628584
atom         3.8633400000        1.4212900000       11.3987000000 N         0.0000000000         0.0000000000        -1.2098215971       30.1647968872      -77.4386427087
atom         8.6758700000        9.9118100000        2.4357900000 N         0.0000000000         0.0000000000        19.0663630087      -37.0197624829     -232.3042032810
atom         6.9564900000        7.7135800000       10.8436000000 N         0.0000000000         0.0000000000        64.7458674389      204.2972102422     -177.7081825663
atom         7.6876100000        9.6655100000        4.5556500000 N         0.0000000000         0.0000000000       142.2463034060     -128.5621152831       71.9063045974
atom         9.3250000000        1.6012300000        2.1472600000 N         0.0000000000         0.0000000000      -225.1604569823       90.1066287757     -116.1016432952
atom         1.7924800000        7.5849700000        5.5494800000 N         0.0000000000         0.0000000000       190.8571353430     -178.5215121056      279.1338456933
atom         8.7823700000        0.1650700000        6.8609800000 N         0.0000000000         0.0000000000        82.8485683532       70.9734635717      387.9995778961
atom         2.0818600000        3.6509600000       11.1092000000 N         0.0000000000         0.0000000000      -134.2048451889     -215.9417782702     -189.2799711626
atom         8.4704300000        6.3851400000        7.0767300000 N         0.0000000000         0.0000000000      -226.1187737403      140.9904238873      238.8317997736
atom         0.7391800000        9.8797100000        5.1881800000 N         0.0000000000         0.0000000000       127.9042648924      163.6595380462       55.2942099735
atom         6.4748000000        5.8962000000       12.8294000000 N         0.0000000000         0.0000000000       -92.2355010150       -6.3993818116      -44.2482276080
atom         8.0720600000        9.3246300000        9.2167600000 N         0.0000000000         0.0000000000      -228.1730055177     -216.3443775492      209.3312180738
atom         9.9775100000        1.1060300000        5.0141300000 N         0.0000000000         0.0000000000       202.3988380790     -107.4605970628     -285.6711277019
atom         8.9757000000        0.9475800000        9.1889500000 N         0.0000000000         0.0000000000       131.0600130801     -103.0395988486     -209.8255020239
atom         8.9490100000        3.6470700000        0.2603800000 N         0.0000000000         0.0000000000       115.0165686643      358.7050792073     -105.8267914773
atom         6.4856200000        8.2822300000        6.8287500000 N         0.0000000000         0.0000000000       -63.5127519301       76.5251786963      -12.8984443631
atom         6.4658600000        2.2896000000        4.6551500000 N         0.0000000000         0.0000000000        -0.1188581601       91.8126031789      -12.7706462121
atom         9.1279500000        7.2459800000        0.6358900000 N         0.0000000000         0.0000000000       201.3296559285       78.7608093253      135.6122351883
atom         8.7532600000        9.7441700000        1.3374600000 N         0.0000000000         0.0000000000       -22.4548168695       32.9217987197      208.3278257110
atom        10.2797000000        8.6075200000        7.8659600000 N         0.0000000000         0.0000000000       -59.2901545947      -29.4697114017     -353.1869385886
atom         1.2020800000        8.0370700000        9.2572100000 N         0.0000000000         0.0000000000        83.4541063567     -269.7645698462      -93.3015087549
atom         6.5484000000        1.2673000000        4.8231700000 N         0.0000000000         0.0000000000        -8.8455766734      -77.5362258738       17.1383461960
atom         7.8694100000        2.6254700000        6.7363600000 N         0.0000000000         0.0000000000       381.1825617031       42.9491683192      -69.1175513419
atom         9.3211400000        4.7587900000       13.0987000000 N         0.0000000000         0.0000000000      -124.6162261766     -368.5852737774      103.4796921302
atom         0.3004200000        2.8252000000        7.3460000000 N         0.0000000000         0.0000000000        80.5267674579      103.6722199512     -221.2784804347
atom         1.5150000000        7.0031300000        8.8853400000 N         0.0000000000         0.0000000000       -63.0218065395      272.1841133463       84.3194399085
atom         9.9934700000        7.6225900000        1.2558300000 N         0.0000000000         0.0000000000      -203.8693620617      -87.7903732060     -146.4233527797
atom         3.8567800000        1.9054400000       10.4376000000 N         0.0000000000         0.0000000000        -7.0855445622      -30.6652317994       74.8073752580
atom         6.1583000000        0.0118900000       12.5123000000 N         0.0000000000         0.0000000000        11.5529424689       51.7418265261     -127.6220634793
atom         8.5142700000        9.0523200000        4.9615100000 N         0.0000000000         0.0000000000      -154.1659571083      120.4583684343      -69.0017318804
atom         9.0357500000        2.7113400000        6.5182600000 N         0.0000000000         0.0000000000      -366.0224791490      -17.1850397484       67.8985317334
atom         2.5548000000        2.0427200000        2.9255900000 N         0.0000000000         0.0000000000      -158.1869772091       58.2735956638       76.4236538201
atom         5.7840100000        9.1001200000        6.8419400000 N         0.0000000000         0.0000000000        51.4458617513      -54.5429966131       -0.1019764648
atom         0.6726600000        3.2663300000        6.3788300000 N         0.0000000000         0.0000000000       -76.4498932593     -102.0988360626      207.3918761005
atom         0.3523800000        0.2717300000        8.1081000000 N         0.0000000000         0.0000000000       228.0820837011      -74.2745942766       58.9573961161
atom         6.2775900000        6.6365300000        8.5830200000 N         0.0000000000         0.0000000000       284.3654517924      -21.2344816074     -183.6566799249
atom         0.6863800000        9.6685700000        0.2864200000 N         0.0000000000         0.0000000000       169.3533717082       97.7991239533     -245.9440151213
atom         5.5134500000        5.8163500000       12.3384000000 N         0.0000000000         0.0000000000       101.3852407131       15.5761755769       36.7941642361
atom         0.0020700000        8.0208000000        3.2585500000 N         0.0000000000         0.0000000000       190.5337242805      -82.1135799147        8.0632391867
atom         1.4016400000       10.5407000000        8.3709900000 N         0.0000000000         0.0000000000      -229.9323585882       67.5157055464      -63.8726632875
energy    -32032.0640865908
charge 0
end
begin
comment generated by PY
lattice        11.4200000000         0.0000000000         0.0000000000
lattice         0.0000000000        10.5800000000         0.0000000000
lattice         0.0000000000         0.0000000000        13.1400000000
atom         5.4320000000        6.2847300000        6.4990000000 H         0.0000000000         0.0000000000       -19.6511931487       93.9791981925      -62.5166541849
atom        10.2955000000        5.4323300000        0.5020600000 H         0.0000000000         0.0000000000      -105.5088509338       61.3848687318       -9.6657235271
atom         4.4009000000        3.1399900000        7.8527700000 H         0.0000000000         0.0000000000      -140.6128985406      -95.5818408187       -8.7652886653
atom         3.4555600000        8.6998600000        3.7554300000 H         0.0000000000         0.0000000000        -1.7523104032       18.4052897086      -14.7610546068