begin
comment generated by PY
lattice        11.4200000000         0.0000000000         0.0000000000
lattice         0.0000000000        10.5800000000         0.0000000000
lattice         0.0000000000         0.0000000000        13.1400000000
atom         9.2350800000        9.4752900000        1.5707300000 H         0.0000000000         0.0000000000       -85.0319020342       54.4813861391      -39.1856885588
atom         1.8828600000        6.5765600000        5.2611500000 H         0.0000000000         0.0000000000       109.4162785476      -19.5101259732      -22.1436176987
atom         4.7212900000        6.2603000000        7.4633200000 H         0.0000000000         0.0000000000       -45.5615296170       17.1381410471     -108.8732726357
atom         0.8661700000        1.5370300000        6.4055100000 H         0.0000000000         0.0000000000      -140.6093020182       59.2698166290      -84.3005063069
atom         8.2078200000        5.0060900000        8.5930800000 H         0.0000000000         0.0000000000        -7.2375017034      -74.3525400026      103.3402776025
atom         7.3506900000        3.5446400000        9.6213400000 H         0.0000000000         0.0000000000        98.8906571694       92.1407184426      -16.0064558310
atom        10.3983000000        1.9449500000       11.7721000000 H         0.0000000000         0.0000000000       -93.5684150015       45.4995180390      -70.7721507755
atom         9.7428500000        8.1100200000        9.0277100000 H         0.0000000000         0.0000000000        74.2611716117       43.5480133765        6.9284308383
atom        10.6598000000        4.4840900000        5.9777600000 H         0.0000000000         0.0000000000        18.7419454256       42.7899895654       79.0219994246
atom         2.1671600000        5.8438900000       10.3177000000 H         0.0000000000         0.0000000000      -139.4193447062        2.4357344040       61.3926523978
atom         8.9059200000        1.9764500000       11.2899000000 H         0.0000000000         0.0000000000       108.7522496161       37.3998903745       -7.8384391319
atom         4.7993900000       10.0643000000        1.7006600000 H         0.0000000000         0.0000000000       -42.9851367240      -35.5822740998      -59.5813377912
atom         6.6345900000        8.8729400000        4.7606600000 H         0.0000000000         0.0000000000        48.3416994776       23.0030811327      -50.5313895491
atom         0.4843400000        0.4647300000       13.0034000000 H         0.0000000000         0.0000000000         5.3530995482       48.2589326080      -12.0977948035
atom         7.6550400000        0.8137600000        2.1304700000 H         0.0000000000         0.0000000000        48.2480488525      -14.4090258633     -102.7878039303
atom         9.3648800000        7.2307300000        4.7808100000 H         0.0000000000         0.0000000000       -18.3822407281      -10.4888176705       53.9706673309
atom         0.0710200000        3.0767700000        3.4515100000 H         0.0000000000         0.0000000000       114.7067992318       80.6417845211       47.9232745455
atom         3.1493200000        6.9302500000        2.6447800000 H         0.0000000000         0.0000000000        99.3624874109       93.9184070562      -55.2091636218
atom         3.3071500000        7.6160600000        7.6800800000 H         0.0000000000         0.0000000000       -40.1879140749       27.8179195232      -80.3715237337
atom         9.3673700000        7.0182900000        0.1839200000 H         0.0000000000         0.0000000000        31.4743089360      -15.6744162196       43.1532812885
atom         9.1004900000       10.0367000000        4.1568700000 H         0.0000000000         0.0000000000       -76.2089701296     -110.3898133674      -20.8896212878
atom         2.2029100000        4.9675400000        1.3255500000 H         0.0000000000         0.0000000000        -2.6516035869       60.1261960225      144.0110713561
atom         0.5642800000        6.1634000000       10.4368000000 H         0.0000000000         0.0000000000       107.4439244982      -40.1498574343       32.3107096973
atom         5.1306300000        9.9879000000        0.1721600000 H         0.0000000000         0.0000000000       -20.7654387260      -16.0189738324       17.6087643168
atom         2.6685000000        4.4768200000       11.9243000000 H         0.0000000000         0.0000000000         9.1422819915       -1.3157556026       48.1363174514
atom         1.3647000000        3.3134500000        4.2941600000 H         0.0000000000         0.0000000000       -45.6495619202       16.7869345690      -46.5544871876
atom         4.6190200000        7.2219100000        1.8791200000 H         0.0000000000         0.0000000000      -124.6209029356       71.7958362356       70.6264022755
atom         3.8097500000        5.8864600000        0.4661200000 H         0.0000000000         0.0000000000        49.7642515925      103.9032743460      -89.7781129170
atom         3.7096500000       10.4616000000        0.5869900000 H         0.0000000000         0.0000000000        37.8781183344      -61.5069910238       26.5790653743
atom         9.5721600000        3.9131500000       10.9875000000 H         0.0000000000         0.0000000000       -66.3232947784       12.8466842316      -48.1819951408
atom         3.5257400000        5.1465200000        3.5224400000 H         0.0000000000         0.0000000000        70.7432864681      -16.2155507303      -16.9320514236
atom         4.1151600000        6.3606800000       12.1224000000 H         0.0000000000         0.0000000000         9.4862301666       25.5860950752      149.4887610722
atom         0.9274100000        6.7620400000       12.8607000000 H         0.0000000000         0.0000000000        -3.6719849064        9.7218162433        2.0443150737
atom         2.4537000000        3.3118200000       12.1738000000 H         0.0000000000         0.0000000000        36.2316382270       55.1593516045       60.7670188944
atom        10.8787000000        1.1064500000        5.9916800000 H         0.0000000000         0.0000000000        79.4904983436      116.8131270150      -12.4522769840
atom         4.0499100000        8.7374700000        0.7381300000 H         0.0000000000         0.0000000000        22.6772903802       86.9190352096       14.8949039905
atom         4.7979600000        4.0509600000        2.8380700000 H         0.0000000000         0.0000000000       -29.8137635052       74.7398092701       62.7414536441
atom         3.5825800000        8.9865700000        3.2355200000 H         0.0000000000         0.0000000000        17.8212829893       66.1457291567       20.5953797561
atom         0.2120300000        5.5844800000        6.4939900000 H         0.0000000000         0.0000000000       -42.8903517332       -9.2253280414       11.3169740952
atom        10.1637000000        6.4509800000        1.4149200000 H         0.0000000000         0.0000000000       -90.1128454917       95.5534626706      -86.2239831031
atom         5.5763200000        7.7320300000        5.2585000000 H         0.0000000000         0.0000000000      -159.3942330755       10.0604373576      -21.5598138140
atom         2.8277000000        2.1882300000        6.0044900000 H         0.0000000000         0.0000000000        60.9705499159       -6.0933382498      -73.8470490572
atom         1.5877600000        5.0987700000        2.9254300000 H         0.0000000000         0.0000000000        77.2508576995        5.6414790106      -92.3771617818
atom         7.5916600000        3.7607400000        2.4845300000 H         0.0000000000         0.0000000000        -2.5307122049      -16.2689835815       14.6371311834
atom         8.0854100000        5.8041300000        2.1808100000 H         0.0000000000         0.0000000000       -41.4755479432        1.3523365126      -38.0640641693
atom         4.1108500000       10.4258000000        4.2753600000 H         0.0000000000         0.0000000000       -32.2920926134      -40.6325758399      -39.7639698052
atom         0.1756400000        8.2226900000       10.5979000000 H         0.0000000000         0.0000000000        -0.5746938576       -5.3124765235     -104.7981082217
atom         4.1146100000        2.4316300000        5.1292200000 H         0.0000000000         0.0000000000      -114.9165137981      -42.6319759846       32.2607567997
atom         3.6102600000        7.9968000000        9.8930200000 C         0.0000000000         0.0000000000       -27.7569113880       23.1636959760      -21.8795069118
atom         0.2202200000        2.0126900000        0.6772600000 C         0.0000000000         0.0000000000        77.5460785199       88.2796008600      -76.2307779632
atom         0.6682300000        0.1753200000        9.8107700000 C         0.0000000000         0.0000000000       109.0761788071       15.3267090064       -5.8411780226
atom         7.1710100000        9.3064400000        3.9981500000 C         0.0000000000         0.0000000000       -26.5359248461       33.8775741402      -98.9539686544
atom         5.5254800000        9.8161900000        6.5036500000 C         0.0000000000         0.0000000000        -0.8452625991       53.4574829077       84.6636959848
atom         8.0602300000        0.5099400000        1.1106600000 C         0.0000000000         0.0000000000        43.9966049314      -21.9817503771       59.7636109096
atom         6.8206400000        6.9492600000        1.3479600000 C         0.0000000000         0.0000000000        61.7134575163     -129.3139433629       60.9233178407
atom         5.5786600000        5.6080100000        3.8939100000 C         0.0000000000         0.0000000000      -156.1508183514     -135.3430696745      -59.4843970065
atom         0.4355800000        8.5081300000        3.0934800000 C         0.0000000000         0.0000000000        51.5856030053       73.2368063318       -2.8175257922
atom         2.0964700000        4.5528900000        6.8496400000 C         0.0000000000         0.0000000000       -32.1937851074       40.4324745877       -2.5493879534
atom         8.0725200000        4.1861500000        5.8951000000 C         0.0000000000         0.0000000000       -21.7987947848      -71.8873018251      -93.6604363024
atom         2.4704700000        8.9466600000        6.3808300000 C         0.0000000000         0.0000000000        -5.4372843433       70.4030594080     -100.7810955213
atom         2.3409200000       10.5268000000        3.5755300000 C         0.0000000000         0.0000000000      -136.8459335966      115.8479581056       65.8198440187
atom         6.4526100000        2.4061400000        3.0247800000 C         0.0000000000         0.0000000000        73.5404241822      139.7225433979       43.8820942668
atom         1.4233300000        8.5020200000        0.2891700000 C         0.0000000000         0.0000000000        54.2165675025       17.3413085188       42.3277152237
atom         9.5800700000        5.8863100000       10.3627000000 C         0.0000000000         0.0000000000       -51.7880705793      -81.8015699123      -33.9301186509
atom         8.2549800000        6.7056000000        6.4128000000 C         0.0000000000         0.0000000000        24.2583061340       60.1337943175      -31.1112574723
atom        10.9117000000        5.6571000000        3.5378300000 C         0.0000000000         0.0000000000       -56.5599731842      -66.8232872625      -21.3028871729
atom         3.5910100000        0.4674300000       11.9456000000 C         0.0000000000         0.0000000000        28.7235800087      -52.1925874074     -104.2437887422
atom         3.7333400000        7.0044800000        5.6955200000 C         0.0000000000         0.0000000000       -63.9580451306       43.1340588896      174.0499003244
atom        11.4105300000        4.5950100000       12.7159000000 C         0.0000000000         0.0000000000         6.6267690338      -18.0956484957      -95.0131112921
atom         0.1531200000        8.1610700000        9.5110100000 C         0.0000000000         0.0000000000        25.5635122866      -70.0273951861      -63.2070595976
atom        11.2594000000        4.3614800000        7.8738300000 C         0.0000000000         0.0000000000       -43.3824148806      -94.3475959474       41.0482120300
atom         4.8770600000        5.2466500000        9.5899100000 C         0.0000000000         0.0000000000        18.6163698527      -27.8604793870       -5.3851676318
atom         6.5246200000        6.1479900000        4.1999300000 O         0.0000000000         0.0000000000      -111.0800202775      -63.5097374102      -29.8093544566
atom         1.8611600000        3.8075800000        5.9765800000 O         0.0000000000         0.0000000000        46.2902569142      121.4735056865      155.7421302545
atom         4.3954100000        6.0918900000        6.5747400000 O         0.0000000000         0.0000000000       -11.4501801470       58.8589098778      -27.3278643209
atom         4.6053500000        7.7328700000        9.2868700000 O         0.0000000000         0.0000000000      -163.4621317603       37.0688786069      105.5802826831
atom        10.7627000000        8.7310200000        2.6634000000 O         0.0000000000         0.0000000000       210.3268333206      -53.2472166876       96.8200897790
atom         4.2321500000        6.6193000000       13.0839000000 O         0.0000000000         0.0000000000       -52.0661836980     -133.3273133306      -55.1956380483
atom         1.0313500000        0.0007000000       10.9071000000 O         0.0000000000         0.0000000000       -73.3611036316       19.4679632089     -159.5389078499
atom         8.5476500000        9.1383900000        4.1698400000 O         0.0000000000         0.0000000000       -73.4956575004      145.6643265822       -8.0272646519
atom         3.9145100000        4.9548200000       10.2222000000 O         0.0000000000         0.0000000000       167.6645034283       53.0495585885     -109.3963171745
atom         2.2251600000        5.4183800000        7.6404800000 O         0.0000000000         0.0000000000       -14.4233994419     -159.7512991124     -128.6783234018
atom         9.5880300000        7.1656500000        1.0445900000 O         0.0000000000         0.0000000000        53.9436685318      -78.2673572553       35.5376071169
atom         6.5338400000        9.7865100000        3.0417600000 O         0.0000000000         0.0000000000       130.1013919767      -82.7241455398      180.9317606632
atom         3.9727300000       10.1449000000       11.2117000000 O         0.0000000000         0.0000000000       -79.4516901606      197.7714256508      165.9256840600
atom         6.8820100000        0.0706000000       12.3585000000 O         0.0000000000         0.0000000000       -20.1145594568       57.6840145460      104.1148958819
atom         9.7594400000        2.3797400000       11.1328000000 O         0.0000000000         0.0000000000       -13.8177008439      -91.2771446249       79.8989984195
atom         6.3758500000        8.0058700000        1.0799600000 O         0.0000000000         0.0000000000        69.8462090960     -184.5196359639       38.8337952749
atom         9.9498200000        5.0206000000        3.1447100000 O         0.0000000000         0.0000000000       198.7318188829      141.4537467363       80.0671810264
atom         5.6897000000        8.8511000000        7.1742700000 O         0.0000000000         0.0000000000       -25.4744029464      163.6505093014     -127.9069749181
atom         3.8516700000        7.7028600000        2.3806900000 O         0.0000000000         0.0000000000        16.8148450390     -176.2418587503      -27.5141661400
atom         4.5338000000        7.8591300000        5.0544800000 O         0.0000000000         0.0000000000        67.9796678254     -108.0892387178       58.6683259419
atom         8.3752200000        9.7434000000        1.2605500000 O         0.0000000000         0.0000000000        22.9978149237       45.0979015097        1.8159594903
atom         2.7712600000        6.2955500000        4.9948700000 O         0.0000000000         0.0000000000        15.9115860216       96.3385025769       73.6448922867
atom         2.5955900000        8.3151100000       10.3699000000 O         0.0000000000         0.0000000000       194.4410834066      -56.9379525075      -74.6977865152
atom         9.6091300000        6.3272100000        9.1780800000 O         0.0000000000         0.0000000000       -12.2506809691      -39.1617732930      149.8808744049
atom         0.4205700000        6.2521000000        3.9069600000 O         0.0000000000         0.0000000000      -153.9922973999      -76.0206709035      -50.1176042144
atom         0.7226500000        0.4074100000        8.6777000000 O         0.0000000000         0.0000000000       -34.1024758506      -35.4303933249      154.6217389656
atom         5.6216700000        1.5987300000        2.9359600000 O         0.0000000000         0.0000000000       115.2565344001      109.7194497903       20.5069330325
atom         1.5787100000        8.4958400000        3.5417300000 O         0.0000000000         0.0000000000      -261.1269480316      -24.9508218461      -92.2546655159
atom         1.0218100000        7.5404100000        8.8431100000 O         0.0000000000         0.0000000000      -163.3459245627      124.7484447161      105.5032672785
atom         2.2329100000        5.4491800000        2.2580700000 O         0.0000000000         0.0000000000       -48.0259161185      -75.5302825798      -43.7902204461
atom         6.9433100000        4.4791800000        6.1827800000 O         0.0000000000         0.0000000000       226.7917455383      -63.1042611245      -49.0905604117
atom         1.3289800000        5.7613700000       10.8380000000 O         0.0000000000         0.0000000000        38.1812093277       27.5740943660      -91.4189391420
atom         6.7774000000        0.6658300000        0.3583400000 O         0.0000000000         0.0000000000        90.1098446415      -81.7891800397      -71.7676556063
atom         3.2267900000        1.4120200000       12.4924000000 O         0.0000000000         0.0000000000        48.9931185534     -139.2428141365      -62.4707178399
atom         0.1928600000        2.9224800000        1.4893600000 O         0.0000000000         0.0000000000       -15.5021183222     -181.5369303079     -148.4952707522
atom         9.9145800000        6.4096700000       11.4451000000 O         0.0000000000         0.0000000000       -39.2127052275      -75.9364117929     -140.4293936027
atom         5.3943800000        0.3583100000        6.1255000000 O         0.0000000000         0.0000000000        22.7069103300     -212.2025560070       55.2655457767
atom         7.3585000000        6.5629200000        7.2243000000 O         0.0000000000         0.0000000000       168.8827458704       29.7653885871     -138.1565121024
atom        11.4112000000        1.9582000000        5.9143900000 O         0.0000000000         0.0000000000        57.7092283409     -181.4956285599       93.4076391705
atom         0.0597000000        5.3505400000        0.4270800000 O         0.0000000000         0.0000000000       -11.4688850465      -91.2379089390      -78.6070241780
atom         2.8487500000        4.0052100000       12.6659000000 O         0.0000000000         0.0000000000       -52.6865751685      -47.3774109717     -104.2380221470
atom        10.4886000000        8.7210900000        8.9334600000 O         0.0000000000         0.0000000000        45.9137568114      -97.6858529842       48.6096617396
atom        11.3891000000        3.9355900000       11.7415000000 O         0.0000000000         0.0000000000         2.9142208319      105.4334153976      180.7564931191
atom         5.8662600000        5.4124600000        8.9611900000 O         0.0000000000         0.0000000000      -187.6078190051      -26.8890098013      113.9089485151
atom         3.2491400000        2.0226900000        5.1939800000 O         0.0000000000         0.0000000000        65.3903748571       39.7571801511       35.3213276489
atom         9.0496500000        3.6919000000        5.3239400000 O         0.0000000000         0.0000000000      -206.9843599834      116.7238780900      135.7767360059
atom         8.9872200000        1.1066200000        0.5459700000 O         0.0000000000         0.0000000000       -83.4370489013      -23.2395444689       42.8520420783
atom         0.8217800000        3.7740000000        3.7223000000 O         0.0000000000         0.0000000000       -78.4744951543     -108.0808790510       -2.2104151235
atom         4.6243200000        3.0137400000        7.5884600000 N         0.0000000000         0.0000000000       207.3467982608       -1.3292970711       17.2574092951
atom         0.4941300000        1.4719000000       12.8298000000 N         0.0000000000         0.0000000000       -82.3760604771       33.5532683145      237.1220830392
atom         6.6780700000        6.5258800000       11.5872000000 N         0.0000000000         0.0000000000       -90.2982076736      203.6098976665       39.9736346501
atom         2.1319800000        9.8868200000        5.8193500000 N         0.0000000000         0.0000000000       100.6180594482     -270.4281177396      188.6073439413
atom         3.5215200000        9.9629100000        3.6094500000 N         0.0000000000         0.0000000000      -212.6809551398      101.2288161490      -12.8826128928
atom         7.1910700000        3.3281700000        3.2638900000 N         0.0000000000         0.0000000000      -190.5284487730     -226.0913628169      -82.2956191666
atom         7.2360900000        5.8420900000        1.6723500000 N         0.0000000000         0.0000000000       -90.5734869981      302.4345689503      -68.4394476932
atom         4.5382000000        4.8263300000        3.5462200000 N         0.0000000000         0.0000000000       219.8135782935      132.5288336427       22.8490478407
atom         3.5213500000        2.3893000000        1.8056600000 N         0.0000000000         0.0000000000      -175.6517225498      -64.5000048396      119.0297560634
atom         9.8808500000        0.9973800000        3.2419400000 N         0.0000000000         0.0000000000        28.2676712112      219.7614904963      120.2918397504
atom         5.3875100000        3.5409800000        0.3437900000 N         0.0000000000         0.0000000000        93.3264143648      135.1493019876     -175.4179868701
atom         6.9036100000        8.7662500000        9.6302700000 N         0.0000000000         0.0000000000       200.8543969471      -58.9982412676       95.3138263036
atom         7.3317200000        1.8741000000        6.3214400000 N         0.0000000000         0.0000000000        92.1472423743     -126.3878576858     -215.7807910880
atom         8.7813900000        3.3515400000        1.1587100000 N         0.0000000000         0.0000000000       -21.3392648790      108.9050899856     -200.1842466022
atom         3.3870100000        0.0114000000        8.4198700000 N         0.0000000000         0.0000000000       116.1046565298       57.5594548050       71.5371147574
atom         6.7566800000        0.8349700000        9.1641900000 N         0.0000000000         0.0000000000       192.9160622505      -38.2003392634       90.8918447693
atom         9.8729700000        9.4433300000       12.2278000000 N         0.0000000000         0.0000000000       -26.0769832453       46.6916200019     -113.2268953286
atom        10.0546000000        2.0043800000        3.7229000000 N         0.0000000000         0.0000000000       -23.4796948812     -223.2372609190     -119.7535231092
atom         4.9743100000        2.2602300000       10.9041000000 N         0.0000000000         0.0000000000       276.3075941825       85.7855438243      -75.1139291277
atom         2.8875600000        7.8189000000        6.7608600000 N         0.0000000000         0.0000000000        47.9817937844       84.5948851572     -124.1768761958
atom         1.3146200000        0.5587500000        3.7038600000 N         0.0000000000         0.0000000000       357.9970943293     -220.9168517306      -54.8078340953
atom         9.5255400000        2.3868500000        7.9495500000 N         0.0000000000         0.0000000000        18.5840806351     -105.3779081140       88.0333701383
atom         0.0022800000        3.6291200000        8.7258300000 N         0.0000000000         0.0000000000       -39.3438930464      231.8257238600     -247.1378502144
atom        11.3526000000        8.0937500000        6.1961500000 N         0.0000000000         0.0000000000       -36.5224446263      157.4647973348     -114.4145724096
atom         5.7249600000        2.9991400000        7.7415400000 N         0.0000000000         0.0000000000      -212.0168362659        9.9201734975      -14.3517359900
atom         4.4063000000        9.7491100000        0.7932300000 N         0.0000000000         0.0000000000        -9.0686111167       12.4919929409       25.9440473944
atom         1.6055000000        7.4164200000       12.7962000000 N         0.0000000000         0.0000000000       -36.2029640135      268.1726002222      144.3603835668
atom        10.8386000000        5.0993600000        6.7929900000 N         0.0000000000         0.0000000000       107.9184523253     -156.3547241581      123.3086223940
atom         2.3951100000        2.4621200000        8.8572700000 N         0.0000000000         0.0000000000       -36.7220395789      -53.5456675144      255.0521257502
atom         8.5947900000        9.3263900000        7.0166200000 N         0.0000000000         0.0000000000        50.6664002505      203.7782255763       69.9887221654
atom         5.7855000000        4.1424900000       12.6280000000 N         0.0000000000         0.0000000000       -90.7241857510     -122.6689751064      185.6295913185
atom         4.2047400000        0.5168600000        8.9388600000 N         0.0000000000         0.0000000000      -115.7134122347      -71.5572786806      -75.3483900320
atom         2.6166300000        2.0769900000        2.3838400000 N         0.0000000000         0.0000000000       174.0045614818       83.8317155536     -118.1786075620
atom         2.2829700000        2.2116100000        9.9505400000 N         0.0000000000         0.0000000000        28.2489579540       66.5831998894     -245.9315663059
atom         8.1292600000        4.3441100000        9.4576900000 N         0.0000000000         0.0000000000        46.2878191981       -2.3846154499       45.7774116459
atom         7.8620700000        8.4712400000       10.1195000000 N         0.0000000000         0.0000000000      -186.8253496913       53.7695507385     -110.4516539476
atom         7.6929200000        1.3281200000        5.4061700000 N         0.0000000000         0.0000000000       -81.4101486150      121.8567084078      202.9296729918
atom         8.6898000000        3.8966600000        0.1819200000 N         0.0000000000         0.0000000000        24.2792236844     -109.0215198209      197.6445899017
atom         8.8598700000       10.3579000000        7.3484000000 N         0.0000000000         0.0000000000       -54.5367228761     -222.6700985363      -78.8070658458
atom         7.7165000000        0.6201500000        9.6820000000 N         0.0000000000         0.0000000000      -184.3043589031       48.2900190597      -90.5485061465
atom         9.6076700000        9.8531000000       11.2559000000 N         0.0000000000         0.0000000000        36.7376855278      -43.4061073895      119.7493638834
atom         9.7089400000        1.5502400000        8.6250200000 N         0.0000000000         0.0000000000       -17.7418946989      117.0740607343      -82.8912536211
atom         6.0336900000        2.5968400000       10.6370000000 N         0.0000000000         0.0000000000      -270.3572327291      -79.9616658018       63.1991256391
atom         9.0714600000        6.9692800000        5.6792600000 N         0.0000000000         0.0000000000      -171.3782483936      -64.8411414924      122.5150449150
atom         9.0259800000        4.5908400000       10.3873000000 N         0.0000000000         0.0000000000        18.0916941876      150.1926589792      -58.2525920089
atom         6.2334600000        7.5321300000       11.7800000000 N         0.0000000000         0.0000000000        80.5268569608     -209.8736391468      -32.3975953471
atom         1.4525700000        9.5091600000        0.9301100000 N         0.0000000000         0.0000000000        -8.4628763256     -274.5955799675     -197.4749082771
atom        11.1456000000        9.0051000000        5.5988100000 N         0.0000000000         0.0000000000        32.0400519667     -163.5995083401      109.6937232466
energy    -32731.1621963056
charge 0
end
begin
comment generated by PY
lattice        11.4200000000         0.0000000000         0.0000000000
lattice         0.0000000000        10.5800000000         0.0000000000
lattice         0.0000000000         0.0000000000        13.1400000000
atom         8.0957500000        2.7198400000        1.3354100000 H         0.0000000000         0.0000000000      -104.3136459516     -109.4552284612       -0.5824117801
atom         0.9560900000        6.5752400000        6.6406100000 H         0.0000000000         0.0000000000        28.2821960768     -114.3814016079        0.0553359768
atom         2.8275800000        3.4743500000        6.8789700000 H         0.0000000000         0.0000000000         2.4511249535      118.5299072526     -107.9714996923
atom         1.4971400000        1.1117200000        5.2643000000 H         0.0000000000         0.0000000000       -79.3496878323     -114.3865214267      -71.5292119829