begin
comment generated by PY
lattice        11.4200000000         0.0000000000         0.0000000000
lattice         0.0000000000        10.5800000000         0.0000000000
lattice         0.0000000000         0.0000000000        13.1400000000
atom         4.4439700000        0.1408200000        5.5400700000 H         0.0000000000         0.0000000000       -78.6236172190      -95.1743779372      -52.2364533559
atom         3.3842200000        9.3054400000        9.2615300000 H         0.0000000000         0.0000000000        27.1094861260      -94.1937742284       17.7227635199
atom         8.9559500000        1.6780100000        3.8076600000 H         0.0000000000         0.0000000000      -136.0273262235      -65.4846613874       13.4926665648
atom         2.2982500000        6.3256800000        3.1918800000 H         0.0000000000         0.0000000000        53.9382624838        9.1732190473     -156.5967293372
atom         9.3153500000        6.0641600000       10.0339000000 H         0.0000000000         0.0000000000        92.7131417108      -80.1286746309       72.4503034426
atom         3.9762500000        1.4441900000        3.5931200000 H         0.0000000000         0.0000000000       -68.2303129395       32.3463717647      -15.5821408299
atom         4.2522300000        9.7557300000        8.0528800000 H         0.0000000000         0.0000000000      -105.7575113220       78.6728302285       38.5274744389
atom         8.4191600000        8.6861800000        7.3395700000 H         0.0000000000         0.0000000000        24.3537026245      -45.0670932340      -44.7901370381
atom         3.4028100000        2.4729300000        2.7718800000 H         0.0000000000         0.0000000000       -25.2254499560      -87.8842732565       83.9073929986
atom         4.6139500000        3.2889900000       11.8597000000 H         0.0000000000         0.0000000000       -87.4901727081       16.8968133510        5.9951699961
atom         7.5584000000        1.2924900000        3.1199200000 H         0.0000000000         0.0000000000        84.7535537589       -6.0553997388      120.4065446116
atom         1.4241100000        0.3033400000        8.1900300000 H         0.0000000000         0.0000000000       -22.6131147079      -11.5575561086       -4.4849075930
atom         3.1042500000        5.7434600000        8.5840700000 H         0.0000000000         0.0000000000        50.1120504099       -0.0512092125       10.8472936029
atom        10.9050000000        5.7259500000        2.5546600000 H         0.0000000000         0.0000000000        30.6655626137       44.4522104614      -43.7093885271
atom         0.7583700000        1.4284500000        6.9131900000 H         0.0000000000         0.0000000000        33.9758996994      -41.8900399835      119.4561459141
atom         4.1878200000        9.2238800000        5.5248700000 H         0.0000000000         0.0000000000       -42.0392061448      114.7654024732      -54.7070369784
atom         2.1167300000       10.2940000000        5.5410100000 H         0.0000000000         0.0000000000      -114.9734590710       30.4215843988      -84.1272460052
atom         6.0824100000        8.0770700000        4.9349500000 H         0.0000000000         0.0000000000         9.7001987265      -36.1587092646       45.3862482538
atom         9.4423000000        4.7196300000        7.4344800000 H         0.0000000000         0.0000000000        -6.8612577563        2.7415730988       -3.7608839028
atom         5.5068600000        7.8790300000        6.4958500000 H         0.0000000000         0.0000000000        64.0721207128      -34.2659110432      -66.3588647420
atom         4.0449300000        0.6525600000        8.3947500000 H         0.0000000000         0.0000000000       -50.4149802352      -81.1867004000       12.9594990854
atom         2.6020700000        3.5099800000        9.7669000000 H         0.0000000000         0.0000000000        35.5487716251       17.3901800886      -91.1225913260
atom         3.0284300000        2.8270100000        6.4717800000 H         0.0000000000         0.0000000000      -114.6186843029      -61.7552099296      -58.3590934087
atom         2.0559400000        1.4334200000        7.7267100000 H         0.0000000000         0.0000000000         6.7941280124       20.9311292264        8.3516811769
atom         3.1970000000        8.0594500000       12.8876000000 H         0.0000000000         0.0000000000        50.3214891024       14.5159309058      -34.3210226155
atom         7.1928300000        7.7218400000        6.1392800000 H         0.0000000000         0.0000000000       -46.8757768257        3.6440714192      -15.3304339571
atom         6.5179400000        6.4172400000        6.0171800000 H         0.0000000000         0.0000000000       -29.3381169142        9.7034697960        2.5448495929
atom         1.1563100000        9.0269700000        3.0973100000 H         0.0000000000         0.0000000000       -24.4453874539      -32.1150153614       22.2688308319
atom         0.6790200000        1.8935100000        8.5761300000 H         0.0000000000         0.0000000000        20.1031441560      -35.8318007152      -20.6310213593
atom         4.0262300000        7.2434800000       11.7239000000 H         0.0000000000         0.0000000000       -16.6473207205      102.1299450877       43.1483621757
atom         3.0949300000        3.4026900000       12.5678000000 H         0.0000000000         0.0000000000       115.9384484209       50.6674263129     -113.9965684867
atom         2.2056800000        6.1266700000        1.4226400000 H         0.0000000000         0.0000000000        55.3988647874       29.7773481518      135.5911154509
atom         4.9493200000        8.3786000000       12.4395000000 H         0.0000000000         0.0000000000       -88.6434112424      -11.8744334220       -6.0927966652
atom         4.2645800000        5.7623700000        9.7194600000 H         0.0000000000         0.0000000000       -20.8652776020       32.1116783712      -45.5007770402
atom         2.3179500000        0.0155000000        3.5594100000 H         0.0000000000         0.0000000000        34.4522219370     -128.9122080913      -43.7032994287
atom         6.1454800000        4.5714800000       10.9107000000 H         0.0000000000         0.0000000000       -92.4127320667      128.0727907171      -28.3409121609
atom         5.7717900000        2.0779800000        8.6255000000 H         0.0000000000         0.0000000000      -113.1750230688       33.8429983654       85.7268017292
atom         0.0114000000        6.3123300000        0.6689200000 H         0.0000000000         0.0000000000       -58.9797419547       -0.2399774052       12.3890892535
atom         2.8221600000        1.4701100000        0.2923100000 H         0.0000000000         0.0000000000       109.3907354362      -58.4658424987        5.5483360679
atom         1.4440300000        0.8885000000        5.0836500000 H         0.0000000000         0.0000000000       -22.0717448018     -120.4849887155       -0.0845771721
atom         5.1275800000        5.7776800000       11.4183000000 H         0.0000000000         0.0000000000        67.4992600975      -57.8487740627      -86.9769241969
atom         3.6602800000        8.7483700000       11.4315000000 H         0.0000000000         0.0000000000         9.0408063085      -14.1215357393       13.6166805894
atom         3.7743800000        3.1287800000        8.8792300000 H         0.0000000000         0.0000000000      -108.3895061705       58.6133265283       13.2287793040
atom         4.8331600000        1.5097600000        9.7160600000 H         0.0000000000         0.0000000000        19.0712106202       90.8763862108      -58.6347749442
atom         8.1202000000        2.1762900000        6.3390400000 H         0.0000000000         0.0000000000       -77.8959531570      -10.9277188991       40.6422097673
atom         2.4552200000        2.6925500000        5.0480000000 H         0.0000000000         0.0000000000       -17.7975928377      -52.8215357650      135.8982782435
atom        10.7355000000        4.7593900000        9.8481700000 H         0.0000000000         0.0000000000       -66.2809959241       45.8675899558       89.8637181737
atom         3.1897900000        9.1783000000        3.4613600000 H         0.0000000000         0.0000000000       -83.6618257547       78.6949482595      -34.5578318190
atom         6.7664400000        7.1352900000       10.0057000000 C         0.0000000000         0.0000000000       132.3053509439     -136.2458218284     -124.2224416630
atom         4.1894400000       10.4717000000        0.6212600000 C         0.0000000000         0.0000000000       -67.8561210303      161.2743638919       -9.4601647192
atom         2.4067600000        5.6853300000       12.1538000000 C         0.0000000000         0.0000000000       -51.6449185227      -35.0076921403       30.7735224348
atom         0.2679800000        4.1005600000        4.3438800000 C         0.0000000000         0.0000000000       -43.1362047072       69.3788137357       57.9049182448
atom         9.5257300000        3.8359400000        1.7090300000 C         0.0000000000         0.0000000000      -212.4720497656       -7.4032605019       -4.1147217749
atom         5.2076600000        1.9373500000        5.4943900000 C         0.0000000000         0.0000000000       -36.2317248744       -6.5967406648      -40.5844235273
atom         5.2310900000        1.0258600000       11.2877000000 C         0.0000000000         0.0000000000        64.9961506322      168.7524471510      111.7125391330
atom         0.3783200000        3.4359500000       10.0244000000 C         0.0000000000         0.0000000000      -220.0238107008      -82.2276892904      -61.1174102668
atom         9.5867500000        9.6026100000        4.5431500000 C         0.0000000000         0.0000000000        24.9903004232       -4.9785407562       32.9441421529
atom         1.1247400000        9.2111600000        0.3821300000 C         0.0000000000         0.0000000000         1.8548691936      -64.9073288318       36.1605346130
atom         7.1569900000        3.9269000000        4.0363500000 C         0.0000000000         0.0000000000        12.4467567822      -31.0142513171        1.1401474320
atom         7.1608800000        0.5598400000        6.3940900000 C         0.0000000000         0.0000000000       -20.3245332733      228.1245845111      -67.1027598899
atom         0.1563200000        7.4637200000        2.4627200000 C         0.0000000000         0.0000000000       -25.9979811692       12.3915437966      100.3308122386
atom         9.8419800000        2.6356200000        6.8403400000 C         0.0000000000         0.0000000000      -115.3748918476      165.2234015324       68.6547868278
atom         9.2568100000        6.9881900000        7.1202500000 C         0.0000000000         0.0000000000         0.0484169526      -36.1796322448       -7.1267262307
atom         4.7436300000        4.8420400000        1.3554400000 C         0.0000000000         0.0000000000       -36.7199986831      -65.4025689197      -34.0908335611
atom         6.3766000000        4.7460700000        7.6509200000 C         0.0000000000         0.0000000000        22.7101688313       40.9981038185     -180.6040573895
atom         7.0016700000        9.4251600000        8.9195600000 C         0.0000000000         0.0000000000        47.7164434832       28.4300827895      -53.9123234871
atom         2.3427600000        0.5125700000       10.8491000000 C         0.0000000000         0.0000000000        39.1307256171       48.3394659301      -30.8984996284
atom         3.8586400000        7.4521000000        8.5585800000 C         0.0000000000         0.0000000000       -14.0155290037      -21.2730687356       -1.3584188647
atom         6.9588400000        3.0978900000        0.3277600000 C         0.0000000000         0.0000000000         8.4076797238       41.0794280324     -133.4916435088
atom         1.2983500000        3.2156100000        0.7604700000 C         0.0000000000         0.0000000000        26.4485543284      -84.2083271041      -39.2051129919
atom        10.4598000000        5.7597300000       11.8241000000 C         0.0000000000         0.0000000000        29.0233554205       88.7720782424      -30.2415328136
atom         3.7108200000        4.9822600000        5.5000900000 C         0.0000000000         0.0000000000         6.9336637023      -67.2692854171      -11.6391269707
atom         5.4080400000        2.0167700000        4.3353000000 O         0.0000000000         0.0000000000       -11.4831752758      -11.3242652709      193.3444408794
atom         0.8629700000       10.3075000000        0.5755600000 O         0.0000000000         0.0000000000        40.6094256020     -145.2847571007      -37.5417686792
atom         7.0322200000       10.1216000000        5.8497200000 O         0.0000000000         0.0000000000        18.0711074749      137.7312482610       97.1690711370
atom         7.6066000000        6.4745900000        9.3422300000 O         0.0000000000         0.0000000000      -174.3164033499      156.8376724685      154.4683743291
atom        10.4003000000       10.3191000000        5.1395200000 O         0.0000000000         0.0000000000      -198.6667263138     -167.9010928019     -141.9667440739
atom         8.0532300000        1.2459400000        3.9965300000 O         0.0000000000         0.0000000000        58.8918201128       53.2782307578     -143.5688779584
atom         2.7735400000        6.0599000000       11.1420000000 O         0.0000000000         0.0000000000       -52.5039460589      -25.9914148000      130.5697124733
atom         1.1761600000        4.8804300000        4.5471800000 O         0.0000000000         0.0000000000      -175.3111170385     -173.8497878658      -49.0087174400
atom         3.3347000000        4.9837800000        6.6106600000 O         0.0000000000         0.0000000000        59.2963409269       13.5819195879     -190.2842255234
atom         1.3576100000        8.0330300000        0.3139900000 O         0.0000000000         0.0000000000       -40.6313734867      221.6228352330       -2.7021937644
atom         5.1309400000       10.4934000000       10.7678000000 O         0.0000000000         0.0000000000         9.8051492369      149.1460501130       68.1340734662
atom         2.2480000000        2.4049900000        6.0148000000 O         0.0000000000         0.0000000000       118.7240086316      110.5502962107      -86.7363135062
atom         2.4122200000       10.0278000000       11.3131000000 O         0.0000000000         0.0000000000       -31.9075769869      161.0335876110      -62.8560669016
atom        10.5486000000        1.8047000000        6.2988100000 O         0.0000000000         0.0000000000      -106.8991305334      127.0926399105       89.2899922795
atom         2.7730800000        6.3779200000        2.2583100000 O         0.0000000000         0.0000000000      -111.5006000007      -29.6533170615       21.3061738491
atom        10.6215000000        3.5408000000        4.3175500000 O         0.0000000000         0.0000000000       218.7703600767      104.9239731227      -10.6583403598
atom         6.2352400000        8.9544400000        8.1094300000 O         0.0000000000         0.0000000000       143.7732022401       96.8431887338      174.0327905575
atom         8.3995000000        3.5533900000        2.1052200000 O         0.0000000000         0.0000000000       241.5240772616       38.4228410349      -60.5555228226
atom         3.7249600000        3.8549100000       11.8638000000 O         0.0000000000         0.0000000000       -21.2615100230      -97.9155904954      114.2305447026
atom         3.9702900000        8.0600300000        7.4047500000 O         0.0000000000         0.0000000000       -17.6158715244     -112.0359228310      185.7247722349
atom         1.0351500000        4.2019700000       10.7191000000 O         0.0000000000         0.0000000000       -86.0011603791     -120.5458074085     -101.8177887699
atom         3.4823100000        8.3221600000        9.6170400000 O         0.0000000000         0.0000000000        27.8474528389       -4.6905587351     -136.3459045909
atom         6.0368400000        7.8387600000       10.4689000000 O         0.0000000000         0.0000000000        49.0171335768      -24.7444449345      -23.6776788295
atom         4.0766200000        4.0523900000        1.8514700000 O         0.0000000000         0.0000000000        85.5525105847      101.7371668084      -49.1213224500
atom         7.9119300000        9.9475900000        9.5095200000 O         0.0000000000         0.0000000000      -199.9950959316     -109.6808433455     -112.7855984820
atom         1.8607600000        5.3656200000        0.0267900000 O         0.0000000000         0.0000000000        97.0534548047       54.6606282467     -164.9233852011
atom         4.6923700000        9.4385500000        0.9384300000 O         0.0000000000         0.0000000000       -75.6984842156      173.4757449509      -52.6212702879
atom         8.8292200000        8.8361000000        3.9903700000 O         0.0000000000         0.0000000000       154.7862357882      161.0993955108      103.1296907974
atom         1.3186300000        2.6476200000       12.8800000000 O         0.0000000000         0.0000000000        -6.2174118680       86.4096173603      135.9176893387
atom         2.5332100000        9.7453600000        3.0323600000 O         0.0000000000         0.0000000000        18.2000746057       17.4026148063       61.4721539878
atom         7.9866900000        3.6547200000        4.8537800000 O         0.0000000000         0.0000000000      -168.4032125309       66.9195100183     -170.9520184789
atom         3.1447800000        1.8064100000        3.4332400000 O         0.0000000000         0.0000000000        75.5011281718       57.8701821863      -71.3546429465
atom         2.8578400000        3.6509800000        8.8769400000 O         0.0000000000         0.0000000000        79.3216316594      -71.5387946135       66.7202197753
atom         2.3847200000        1.5911700000       10.3497000000 O         0.0000000000         0.0000000000       -17.3995786760     -210.9860108722      104.2786286462
atom         3.5582800000       10.4128000000        8.3977200000 O         0.0000000000         0.0000000000       142.8841630253       -4.8109712090      -43.8660642380
atom         5.3809200000        5.4708300000        0.6536100000 O         0.0000000000         0.0000000000       -53.2736246269      -41.5598285738       84.8561426596
atom        10.2891000000        4.2693700000        1.0240700000 O         0.0000000000         0.0000000000       -20.4317261562      -43.7965376033       58.8557410996
atom         6.2177200000        4.2498800000        8.7167700000 O         0.0000000000         0.0000000000        29.7827465833       65.0623169496     -142.1459176964
atom         5.6241600000        5.4554500000       10.6521000000 O         0.0000000000         0.0000000000        22.2122719740      -69.2739938873      128.0352329942
atom         7.4232600000        3.7478100000       12.5861000000 O         0.0000000000         0.0000000000       -63.9085316485     -101.6651728650      167.0202782616
atom         3.8684300000       10.0645000000        5.0999200000 O         0.0000000000         0.0000000000       123.2529417622      -36.5609188631      122.4608532152
atom         1.3837500000        3.5185400000        1.8377500000 O         0.0000000000         0.0000000000       -19.4598222766       -8.4696888912      -84.5641613296
atom         6.3760600000        2.3897900000        0.9722200000 O         0.0000000000         0.0000000000        54.2913825731       57.8360828661      -29.5572299792
atom         4.0546500000        4.7460100000        4.3823700000 O         0.0000000000         0.0000000000       -62.0305676471       57.8258195706      198.2909756746
atom         4.9421500000        2.3007600000        9.1873400000 O         0.0000000000         0.0000000000        92.9275146397     -127.5536418726      -38.2852014295
atom         6.3449700000        4.0926300000        3.1706800000 O         0.0000000000         0.0000000000       153.9083238722      -17.4435820410      172.3095156131
atom         4.6218100000        1.8003300000        6.4989600000 O         0.0000000000         0.0000000000        88.9604049928       19.5103758647     -136.2054961982
atom         1.2596000000       10.5155000000        5.0182000000 O         0.0000000000         0.0000000000       148.8872864322       99.9074765936       90.9328547204
atom         7.9532900000        0.5674600000       12.4351000000 N         0.0000000000         0.0000000000        -9.2187326645      -82.1081074849      156.4200420330
atom         3.7707400000        0.9776400000        0.3622600000 N         0.0000000000         0.0000000000        23.1673675377     -264.4207868068       70.0653322189
atom         9.2793200000        8.6397500000        1.4223900000 N         0.0000000000         0.0000000000       138.0193178261       84.3035348108     -155.9454509514
atom         7.1417900000        1.8268600000        6.5946900000 N         0.0000000000         0.0000000000        60.4682773711     -339.7633867113      -73.5498623521
atom        11.3627000000        6.3586100000        1.9085700000 N         0.0000000000         0.0000000000        39.8316382670      235.3315487345      157.5272873351
atom         9.1035400000        3.4933400000        7.3136800000 N         0.0000000000         0.0000000000       249.4685518337     -235.6217174373     -150.9199651618
atom         5.4263500000        2.0493900000       11.8354000000 N         0.0000000000         0.0000000000       -72.0118389507     -290.0309516500     -178.5362322446
atom        10.8815000000        2.7820500000        9.4723500000 N         0.0000000000         0.0000000000       326.5698658574      208.8434090237      162.5911377290
atom        10.3270000000        1.1819600000       11.7799000000 N         0.0000000000         0.0000000000        -8.0023960222      261.1669628503      106.4275009769
atom         7.5128800000        7.1467600000       12.6805000000 N         0.0000000000         0.0000000000      -239.5435099869      219.6477629610       93.3618515688
atom         6.6104600000        9.7621700000        2.1814100000 N         0.0000000000         0.0000000000      -129.5057883145       83.0192115177      203.3313829233
atom         5.4047500000        7.3778900000        3.0042100000 N         0.0000000000         0.0000000000      -244.2387419162       -0.0657087809      106.7698661551
atom         9.9279100000        6.3580700000        4.6266900000 N         0.0000000000         0.0000000000      -276.1173629499      -73.0880454494       39.0113842387
atom         0.6787800000        8.6510900000        9.9607000000 N         0.0000000000         0.0000000000       -70.3627473555     -111.5287042520      132.1012960389
atom         9.2596900000        9.0149300000       11.4343000000 N         0.0000000000         0.0000000000        23.7723818649     -169.9705809952     -232.2255539801
atom         7.8556200000        2.1263900000        9.5321800000 N         0.0000000000         0.0000000000       103.1918644305      122.8236527568      193.4048661547
atom         1.1266400000        7.0480200000        5.1417100000 N         0.0000000000         0.0000000000       257.5365208387       95.1480940265       72.1598086410
atom         6.6966400000        7.8986000000       13.0151000000 N         0.0000000000         0.0000000000       224.9841288234     -216.7566079355     -107.9328033917
atom         0.2113400000        8.2170800000        7.6056900000 N         0.0000000000         0.0000000000       132.4944052847      127.5425392101      -41.8013930601
atom         3.9625500000        6.1752100000        8.8491800000 N         0.0000000000         0.0000000000       -42.4023048059      210.3809440397      -49.5566725923
atom         0.2407500000        8.4296000000        3.1582500000 N         0.0000000000         0.0000000000        35.3156728471     -232.9852506522     -238.8929562982
atom         1.0654000000        5.4827100000        7.5254900000 N         0.0000000000         0.0000000000      -131.1327933614     -208.9017405912        5.1524132010
atom        10.7752000000        6.3154200000       12.7789000000 N         0.0000000000         0.0000000000       -65.1511516636     -170.4910909308     -254.4909520138
atom        10.6209000000        0.8687300000        1.9172300000 N         0.0000000000         0.0000000000        31.4595707648       55.8156261968      174.0358724287
atom         7.9532400000        0.0596500000        0.2719600000 N         0.0000000000         0.0000000000        -0.1049604354       95.1538581000     -161.8980346647
atom         1.1851700000        1.1962300000        7.9642200000 N         0.0000000000         0.0000000000       -64.3367357644       70.0877637424      -95.8844794111
atom         9.7184100000        5.9764600000        7.4692000000 N         0.0000000000         0.0000000000      -142.7180878484      244.0122397539      -98.7001468879
atom         8.7576900000        8.0906100000        6.6132900000 N         0.0000000000         0.0000000000        94.7606199350     -224.9463706909      154.9003287936
atom         9.8177900000        0.1223900000        7.9902600000 N         0.0000000000         0.0000000000       114.5831258848      -18.4582578976      213.7289614175
atom         7.5257600000        6.5660300000        2.0016900000 N         0.0000000000         0.0000000000       223.3151443525     -116.7102351157       13.0858613614
atom         6.0214800000       10.1548000000        3.0526000000 N         0.0000000000         0.0000000000       132.7032795305      -78.4485664430     -184.3447898531
atom         9.3697500000        8.3529100000       10.5170000000 N         0.0000000000         0.0000000000       -33.0565313981      159.8775703262      229.3153512376
atom        10.2712000000        2.2349600000       12.1992000000 N         0.0000000000         0.0000000000        15.7368109059     -261.6800214511     -101.6556873441
atom        10.3619000000        0.0445000000        8.9695600000 N         0.0000000000         0.0000000000      -110.8767814823       21.2203146199     -219.8997017811
atom        10.1223000000        5.3690400000       10.6320000000 N         0.0000000000         0.0000000000        24.0890786537      108.2713365705      110.4850612511
atom         4.3680300000        7.3602400000        3.4455000000 N         0.0000000000         0.0000000000       226.7138222821       12.3867986072      -93.1039957004
atom         8.8364200000        6.1012300000        4.8229200000 N         0.0000000000         0.0000000000       271.2710068379       71.3863874782      -46.8785199002
atom         0.2095100000        7.9563800000       10.6787000000 N         0.0000000000         0.0000000000        91.1074618182      111.0316284365     -124.1461356872
atom         8.5223400000        6.0602700000        2.0614500000 N         0.0000000000         0.0000000000      -208.1132269269      101.1037633576       -9.9672883670
atom         8.3510900000        2.6656900000       10.3878000000 N         0.0000000000         0.0000000000      -116.4232770902     -119.6448746761     -200.5007043839
atom         2.1582000000        7.4144900000        5.4439800000 N         0.0000000000         0.0000000000      -244.1418447225      -86.3934212421      -84.1332349422
atom         0.4375000000        4.5514000000        7.5002200000 N         0.0000000000         0.0000000000       143.9657139350      201.5411377322        0.4564882849
atom         1.0048800000        8.9500700000        7.3876500000 N         0.0000000000         0.0000000000      -129.7915091134     -114.3271833172       31.8877876626
atom         6.5292600000        5.1359100000        6.5433900000 N         0.0000000000         0.0000000000       -44.7116997106      -64.3685662841      287.4986620150
atom         3.9256600000        8.1981700000       12.1969000000 N         0.0000000000         0.0000000000        70.7178774224     -110.2780662018      -21.6010444116
atom         9.9601800000        9.0731200000        0.6544900000 N         0.0000000000         0.0000000000      -126.0048500818      -93.3536750324      158.4454280740
atom         6.2278000000        7.5576300000        5.7828200000 N         0.0000000000         0.0000000000         3.7245191448       10.0391946543       46.1138322728
atom        10.8444000000        1.1838500000        2.9509100000 N         0.0000000000         0.0000000000       -37.7496947533      -51.1599893623     -166.5735001332
energy    -32829.0310688010
charge 0
end
begin
comment generated by PY
lattice        11.4200000000         0.0000000000         0.0000000000
lattice         0.0000000000        10.5800000000         0.0000000000
lattice         0.0000000000         0.0000000000        13.1400000000
atom         3.5400800000        0.2251000000        5.3287300000 H         0.0000000000         0.0000000000        59.6728007159      -74.1346523207      -66.8072370740
atom         3.5006500000        8.7693800000        9.7275100000 H         0.0000000000         0.0000000000        14.0281904003      -95.2316318005      -25.1625079781
atom         9.2243700000        2.9392900000        4.1517900000 H         0.0000000000         0.0000000000       -30.0630136480      -29.0333220018      -63.5812049810
atom         2.5660800000        5.9189100000        3.2144800000 H         0.0000000000         0.0000000000       -26.1193002478      101.7533975914      -76.1870134202