begin
comment generated by PY
lattice        20.0000000000         0.0000000000         0.0000000000
lattice         0.0000000000        20.0000000000         0.0000000000
lattice         0.0000000000         0.0000000000        20.0000000000
atom        10.0000000000       10.0000000000        8.5260100000 H         0.0000000000         0.0000000000         0.0000691816        0.0000691816      131.6152994598
atom        10.0000000000       10.0000000000       11.4739900000 H         0.0000000000         0.0000000000        -0.0000691816        0.0000461211     -131.6161527001
atom        10.0000000000       10.0000000000       10.4080800000 C         0.0000000000         0.0000000000        -0.0001844844       -0.0000691816     2791.7156656448
atom        10.0000000000       10.0000000000        9.5919200000 C         0.0000000000         0.0000000000         0.0002075449       -0.0000461211    -2791.7148124045
energy      -398.6915541917
charge 0
end
begin
comment generated by PY
lattice        20.0000000000         0.0000000000         0.0000000000
lattice         0.0000000000        20.0000000000         0.0000000000
lattice         0.0000000000         0.0000000000        20.0000000000
atom        10.0000000000       10.0000000000        8.5160100000 H         0.0000000000         0.0000000000        -0.0000000000        0.0000230605      130.8674238766
atom        10.0000000000       10.0000000000       11.4839900000 H         0.0000000000         0.0000000000        -0.0000461211       -0.0000000000     -130.8662708492
atom        10.0000000000       10.0000000000       10.4180800000 C         0.0000000000         0.0000000000        -0.0000230605       -0.0001153027     2453.6222193053
atom        10.0000000000       10.0000000000        9.5819200000 C         0.0000000000         0.0000000000         0.0000691816        0.0000922422    -2453.6233723327
energy      -448.4635719236
charge 0
end
begin
comment generated by PY
lattice        20.0000000000         0.0000000000         0.0000000000
lattice         0.0000000000        20.0000000000         0.0000000000
lattice         0.0000000000         0.0000000000        20.0000000000
atom        10.0000000000       10.0000000000        8.5060100000 H         0.0000000000         0.0000000000         0.0000230605        0.0000461211      130.0926453860
atom        10.0000000000       10.0000000000       11.4939900000 H         0.0000000000         0.0000000000         0.0000000000        0.0000461211     -130.0815532624
atom        10.0000000000       10.0000000000       10.4280800000 C         0.0000000000         0.0000000000        -0.0000691816       -0.0000461211     2148.1673127373
atom        10.0000000000       10.0000000000        9.5719200000 C         0.0000000000         0.0000000000         0.0000230605       -0.0000461211    -2148.1784048609
energy      -491.8194221408
charge 0
end
begin
comment generated by PY
lattice        20.0000000000         0.0000000000         0.0000000000
lattice         0.0000000000        20.0000000000         0.0000000000
lattice         0.0000000000         0.0000000000        20.0000000000
atom        10.0000000000       10.0000000000        8.4960100000 H         0.0000000000         0.0000000000         0.0000461211       -0.0000230605      129.2965278480
atom        10.0000000000       10.0000000000       11.5039900000 H         0.0000000000         0.0000000000        -0.0000461211       -0.0000691816     -129.2845824841
atom        10.0000000000       10.0000000000       10.4380800000 C         0.0000000000         0.0000000000        -0.0000691816        0.0000230605     1872.7644414087
atom        10.0000000000       10.0000000000        9.5619200000 C         0.0000000000         0.0000000000         0.0000461211        0.0000691816    -1872.7763867725
energy      -529.3859823685
charge 0
end
begin
comment generated by PY
lattice        20.0000000000         0.0000000000         0.0000000000
lattice         0.0000000000        20.0000000000         0.0000000000
lattice         0.0000000000         0.0000000000        20.0000000000
atom        10.0000000000       10.0000000000        8.4860100000 H         0.0000000000         0.0000000000         0.0000922422        0.0002767266      128.4866329933
atom        10.0000000000       10.0000000000       11.5139900000 H         0.0000000000         0.0000000000        -0.0000461211       -0.0000922422     -128.4983938728
atom        10.0000000000       10.0000000000       10.4480800000 C         0.0000000000         0.0000000000        -0.0001383633       -0.0004150899     1624.8204740134
atom        10.0000000000       10.0000000000        9.5519200000 C         0.0000000000         0.0000000000         0.0000922422        0.0002306055    -1624.8087361945
energy      -561.7385192227
charge 0
end
begin
comment generated by PY
lattice        20.0000000000         0.0000000000         0.0000000000
lattice         0.0000000000        20.0000000000         0.0000000000
lattice         0.0000000000         0.0000000000        20.0000000000
atom        10.0000000000       10.0000000000        8.4760100000 H         0.0000000000         0.0000000000        -0.0000000000        0.0000691816      127.7102810666
atom        10.0000000000       10.0000000000       11.5239900000 H         0.0000000000         0.0000000000        -0.0000230605        0.0000691816     -127.7017947850
atom        10.0000000000       10.0000000000       10.4580800000 C         0.0000000000         0.0000000000        -0.0000230605       -0.0000230605     1401.9813983256
atom        10.0000000000       10.0000000000        9.5419200000 C         0.0000000000         0.0000000000         0.0000691816       -0.0001153027    -1401.9899076678
energy      -589.4030075474
charge 0
end
begin
comment generated by PY
lattice        20.0000000000         0.0000000000         0.0000000000
lattice         0.0000000000        20.0000000000         0.0000000000
lattice         0.0000000000         0.0000000000        20.0000000000
atom        10.0000000000       10.0000000000        8.4660100000 H         0.0000000000         0.0000000000         0.0000000000       -0.0002536660      126.9272670075
atom        10.0000000000       10.0000000000       11.5339900000 H         0.0000000000         0.0000000000         0.0000461211       -0.0003459082     -126.9267135544
atom        10.0000000000       10.0000000000       10.4680800000 C         0.0000000000         0.0000000000         0.0001383633        0.0001844844     1202.0500578379
atom        10.0000000000       10.0000000000        9.5319200000 C         0.0000000000         0.0000000000        -0.0002075449        0.0004150899    -1202.0505882305
energy      -612.8592383891
charge 0
end
begin
comment generated by PY
lattice        20.0000000000         0.0000000000         0.0000000000
lattice         0.0000000000        20.0000000000         0.0000000000
lattice         0.0000000000         0.0000000000        20.0000000000
atom        10.0000000000       10.0000000000        8.4560100000 H         0.0000000000         0.0000000000        -0.0000922422        0.0002767266      126.1209327039
atom        10.0000000000       10.0000000000       11.5439900000 H         0.0000000000         0.0000000000         0.0001383633        0.0001383633     -126.1710432747
atom        10.0000000000       10.0000000000       10.4780800000 C         0.0000000000         0.0000000000         0.0001844844       -0.0002997871     1023.0144618371
atom        10.0000000000       10.0000000000        9.5219200000 C         0.0000000000         0.0000000000        -0.0002306055       -0.0000922422    -1022.9643282057
energy      -632.5437842283
charge 0
end
begin
comment generated by PY
lattice        20.0000000000         0.0000000000         0.0000000000
lattice         0.0000000000        20.0000000000         0.0000000000
lattice         0.0000000000         0.0000000000        20.0000000000
atom        10.0000000000       10.0000000000        8.4460100000 H         0.0000000000         0.0000000000        -0.0000691816       -0.0001153027      125.3938200163
atom        10.0000000000       10.0000000000       11.5539900000 H         0.0000000000         0.0000000000        -0.0000922422        0.0004842715     -125.4213773712
atom        10.0000000000       10.0000000000       10.4880800000 C         0.0000000000         0.0000000000         0.0001844844        0.0002306055      862.6995626139
atom        10.0000000000       10.0000000000        9.5119200000 C         0.0000000000         0.0000000000        -0.0000000000       -0.0005995742     -862.6720052590
energy      -648.8524922849
charge 0
end
begin
comment generated by PY
lattice        20.0000000000         0.0000000000         0.0000000000
lattice         0.0000000000        20.0000000000         0.0000000000
lattice         0.0000000000         0.0000000000        20.0000000000
atom        10.0000000000       10.0000000000        8.4360100000 H         0.0000000000         0.0000000000         0.0000230605        0.0000922422      124.7050258003
atom        10.0000000000       10.0000000000       11.5639900000 H         0.0000000000         0.0000000000        -0.0000922422        0.0001844844     -124.7081620349
atom        10.0000000000       10.0000000000       10.4980800000 C         0.0000000000         0.0000000000        -0.0001153027       -0.0000000000      719.3882908034
atom        10.0000000000       10.0000000000        9.5019200000 C         0.0000000000         0.0000000000         0.0001844844       -0.0002767266     -719.3851545689
energy      -662.1431340505
charge 0
end
begin
comment generated by PY
lattice        20.0000000000         0.0000000000         0.0000000000
lattice         0.0000000000        20.0000000000         0.0000000000
lattice         0.0000000000         0.0000000000        20.0000000000
atom        10.0000000000       10.0000000000        8.4260100000 H         0.0000000000         0.0000000000         0.0000461211        0.0001614238      124.0246006717
atom        10.0000000000       10.0000000000       11.5739900000 H         0.0000000000         0.0000000000        -0.0000691816        0.0000922422     -124.0344014046
atom        10.0000000000       10.0000000000       10.5080800000 C         0.0000000000         0.0000000000        -0.0000691816       -0.0001844844      591.5218646426
atom        10.0000000000       10.0000000000        9.4919200000 C         0.0000000000         0.0000000000         0.0000922422       -0.0000691816     -591.5120639097
energy      -672.7389516235
charge 0
end
begin
comment generated by PY
lattice        20.0000000000         0.0000000000         0.0000000000
lattice         0.0000000000        20.0000000000         0.0000000000
lattice         0.0000000000         0.0000000000        20.0000000000
atom        10.0000000000       10.0000000000        8.4160100000 H         0.0000000000         0.0000000000         0.0000230605       -0.0001153027      123.3776952918
atom        10.0000000000       10.0000000000       11.5839900000 H         0.0000000000         0.0000000000        -0.0002767266       -0.0001383633     -123.3751125105
atom        10.0000000000       10.0000000000       10.5180800000 C         0.0000000000         0.0000000000        -0.0001383633       -0.0000922422      477.4475306350
atom        10.0000000000       10.0000000000        9.4819200000 C         0.0000000000         0.0000000000         0.0003689688        0.0003459082     -477.4501134164
energy      -680.9309415413
charge 0
end
begin
comment generated by PY
lattice        20.0000000000         0.0000000000         0.0000000000
lattice         0.0000000000        20.0000000000         0.0000000000
lattice         0.0000000000         0.0000000000        20.0000000000
atom        10.0000000000       10.0000000000        8.4060100000 H         0.0000000000         0.0000000000         0.0000000000        0.0000230605      122.7465530389
atom        10.0000000000       10.0000000000       11.5939900000 H         0.0000000000         0.0000000000        -0.0000691816       -0.0000461211     -122.7511882090
atom        10.0000000000       10.0000000000       10.5280800000 C         0.0000000000         0.0000000000        -0.0000691816       -0.0000922422      375.8052512166
atom        10.0000000000       10.0000000000        9.4719200000 C         0.0000000000         0.0000000000         0.0001153027        0.0000922422     -375.8006391070
energy      -686.9809963403
charge 0
end
begin
comment generated by PY
lattice        20.0000000000         0.0000000000         0.0000000000
lattice         0.0000000000        20.0000000000         0.0000000000
lattice         0.0000000000         0.0000000000        20.0000000000
atom        10.0000000000       10.0000000000        8.3960100000 H         0.0000000000         0.0000000000         0.0000230605        0.0000922422      122.1296728483
atom        10.0000000000       10.0000000000       11.6039900000 H         0.0000000000         0.0000000000        -0.0000691816        0.0000691816     -122.1318866609
atom        10.0000000000       10.0000000000       10.5380800000 C         0.0000000000         0.0000000000        -0.0001153027       -0.0000691816      285.3893854602
atom        10.0000000000       10.0000000000        9.4619200000 C         0.0000000000         0.0000000000         0.0001614238       -0.0000922422     -285.3871716476
energy      -691.1249652359
charge 0
end
begin
comment generated by PY
lattice        20.0000000000         0.0000000000         0.0000000000
lattice         0.0000000000        20.0000000000         0.0000000000
lattice         0.0000000000         0.0000000000        20.0000000000
atom        10.0000000000       10.0000000000        8.3860100000 H         0.0000000000         0.0000000000        -0.0001153027        0.0001614238      121.5269624781
atom        10.0000000000       10.0000000000       11.6139900000 H         0.0000000000         0.0000000000        -0.0000461211        0.0002306055     -121.5339037030
atom        10.0000000000       10.0000000000       10.5480800000 C         0.0000000000         0.0000000000         0.0001614238       -0.0000691816      205.1148173873
atom        10.0000000000       10.0000000000        9.4519200000 C         0.0000000000         0.0000000000         0.0000230605       -0.0003459082     -205.1078531018
energy      -693.5753174479
charge 0
end
begin
comment generated by PY
lattice        20.0000000000         0.0000000000         0.0000000000
lattice         0.0000000000        20.0000000000         0.0000000000
lattice         0.0000000000         0.0000000000        20.0000000000
atom        10.0000000000       10.0000000000        8.3760100000 H         0.0000000000         0.0000000000        -0.0001614238        0.0001383633      120.9515496476
atom        10.0000000000       10.0000000000       11.6239900000 H         0.0000000000         0.0000000000        -0.0001153027        0.0002306055     -120.9549626087
atom        10.0000000000       10.0000000000       10.5580800000 C         0.0000000000         0.0000000000         0.0002075449       -0.0000000000      133.8734920423
atom        10.0000000000       10.0000000000        9.4419200000 C         0.0000000000         0.0000000000         0.0000691816       -0.0003689688     -133.8700790811
energy      -694.5236276034
charge 0
end
begin
comment generated by PY
lattice        20.0000000000         0.0000000000         0.0000000000
lattice         0.0000000000        20.0000000000         0.0000000000
lattice         0.0000000000         0.0000000000        20.0000000000
atom        10.0000000000       10.0000000000        8.3660100000 H         0.0000000000         0.0000000000        -0.0000461211        0.0000461211      120.4035265991
atom        10.0000000000       10.0000000000       11.6339900000 H         0.0000000000         0.0000000000        -0.0000230605       -0.0000230605     -120.4040339311
atom        10.0000000000       10.0000000000       10.5680800000 C         0.0000000000         0.0000000000         0.0000461211       -0.0000230605       70.7534068518
atom        10.0000000000       10.0000000000        9.4319200000 C         0.0000000000         0.0000000000         0.0000230605        0.0000000000      -70.7529225803
energy      -694.1420152390
charge 0
end
begin
comment generated by PY
lattice        20.0000000000         0.0000000000         0.0000000000
lattice         0.0000000000        20.0000000000         0.0000000000
lattice         0.0000000000         0.0000000000        20.0000000000
atom        10.0000000000       10.0000000000        8.3560100000 H         0.0000000000         0.0000000000        -0.0000691816       -0.0001153027      119.8284851033
atom        10.0000000000       10.0000000000       11.6439900000 H         0.0000000000         0.0000000000        -0.0000691816       -0.0000691816     -119.8402690433
atom        10.0000000000       10.0000000000       10.5780800000 C         0.0000000000         0.0000000000         0.0000922422        0.0001614238       15.2174252437
atom        10.0000000000       10.0000000000        9.4219200000 C         0.0000000000         0.0000000000         0.0000461211        0.0000230605      -15.2056413037
energy      -692.5838665336
charge 0
end
begin
comment generated by PY
lattice        20.0000000000         0.0000000000         0.0000000000
lattice         0.0000000000        20.0000000000         0.0000000000
lattice         0.0000000000         0.0000000000        20.0000000000
atom        10.0000000000       10.0000000000        8.3460100000 H         0.0000000000         0.0000000000        -0.0000230605       -0.0000230605      119.3463462776
atom        10.0000000000       10.0000000000       11.6539900000 H         0.0000000000         0.0000000000        -0.0000230605       -0.0000461211     -119.3463923987
atom        10.0000000000       10.0000000000       10.5880800000 C         0.0000000000         0.0000000000         0.0000230605        0.0000230605      -34.0809999254
atom        10.0000000000       10.0000000000        9.4119200000 C         0.0000000000         0.0000000000         0.0000230605        0.0000461211       34.0810460465
energy      -689.9909948385
charge 0
end
begin
comment generated by PY
lattice        20.0000000000         0.0000000000         0.0000000000
lattice         0.0000000000        20.0000000000         0.0000000000
lattice         0.0000000000         0.0000000000        20.0000000000
atom        10.0000000000       10.0000000000        8.3360100000 H         0.0000000000         0.0000000000         0.0000000000       -0.0000230605      118.8272415121
atom        10.0000000000       10.0000000000       11.6639900000 H         0.0000000000         0.0000000000         0.0000230605        0.0000230605     -118.8270800883
atom        10.0000000000       10.0000000000       10.5980800000 C         0.0000000000         0.0000000000        -0.0000230605        0.0000230605      -77.2681061158
atom        10.0000000000       10.0000000000        9.4019200000 C         0.0000000000         0.0000000000        -0.0000230605       -0.0000461211       77.2679216314
energy      -686.4857653119
charge 0
end
begin
comment generated by PY
lattice        20.0000000000         0.0000000000         0.0000000000
lattice         0.0000000000        20.0000000000         0.0000000000
lattice         0.0000000000         0.0000000000        20.0000000000
atom        10.0000000000       10.0000000000        8.3260100000 H         0.0000000000         0.0000000000         0.0000000000       -0.0000230605      118.3201199537
atom        10.0000000000       10.0000000000       11.6739900000 H         0.0000000000         0.0000000000         0.0000000000       -0.0000000000     -118.3200046510
atom        10.0000000000       10.0000000000       10.6080800000 C         0.0000000000         0.0000000000         0.0000230605        0.0000461211     -115.1478264146
atom        10.0000000000       10.0000000000        9.3919200000 C         0.0000000000         0.0000000000        -0.0000230605       -0.0000000000      115.1477111119
energy      -682.1809426530
charge 0
end
begin
comment generated by PY
lattice        20.0000000000         0.0000000000         0.0000000000
lattice         0.0000000000        20.0000000000         0.0000000000
lattice         0.0000000000         0.0000000000        20.0000000000
atom        10.0000000000       10.0000000000        8.3160100000 H         0.0000000000         0.0000000000        -0.0000461211        0.0000000000      117.8148642895
atom        10.0000000000       10.0000000000       11.6839900000 H         0.0000000000         0.0000000000        -0.0000230605        0.0000230605     -117.8150257134
atom        10.0000000000       10.0000000000       10.6180800000 C         0.0000000000         0.0000000000         0.0001153027        0.0000000000     -148.2722179946
atom        10.0000000000       10.0000000000        9.3819200000 C         0.0000000000         0.0000000000        -0.0000461211       -0.0000230605      148.2723563578
energy      -677.1779172640
charge 0
end
begin
comment generated by PY
lattice        20.0000000000         0.0000000000         0.0000000000
lattice         0.0000000000        20.0000000000         0.0000000000
lattice         0.0000000000         0.0000000000        20.0000000000
atom        10.0000000000       10.0000000000        8.3060100000 H         0.0000000000         0.0000000000         0.0000461211       -0.0000461211      117.3043718708
atom        10.0000000000       10.0000000000       11.6939900000 H         0.0000000000         0.0000000000         0.0000461211       -0.0000461211     -117.3048330818
atom        10.0000000000       10.0000000000       10.6280800000 C         0.0000000000         0.0000000000        -0.0002075449       -0.0000230605     -176.9500276763
atom        10.0000000000       10.0000000000        9.3719200000 C         0.0000000000         0.0000000000         0.0000922422        0.0000922422      176.9504658267
energy      -671.5675228932
charge 0
end
begin
comment generated by PY
lattice        20.0000000000         0.0000000000         0.0000000000
lattice         0.0000000000        20.0000000000         0.0000000000
lattice         0.0000000000         0.0000000000        20.0000000000
atom        10.0000000000       10.0000000000        8.2960100000 H         0.0000000000         0.0000000000         0.0000691816        0.0000230605      116.8206507382
atom        10.0000000000       10.0000000000       11.7039900000 H         0.0000000000         0.0000000000        -0.0000461211       -0.0000691816     -116.8205354354
atom        10.0000000000       10.0000000000       10.6380800000 C         0.0000000000         0.0000000000        -0.0000922422       -0.0000461211     -201.8266552502
atom        10.0000000000       10.0000000000        9.3619200000 C         0.0000000000         0.0000000000         0.0000461211        0.0000922422      201.8265168869
energy      -665.4316212714
charge 0
end
begin
comment generated by PY
lattice        20.0000000000         0.0000000000         0.0000000000
lattice         0.0000000000        20.0000000000         0.0000000000
lattice         0.0000000000         0.0000000000        20.0000000000
atom        10.0000000000       10.0000000000        8.2860100000 H         0.0000000000         0.0000000000         0.0000230605       -0.0000000000      116.3509400121
atom        10.0000000000       10.0000000000       11.7139900000 H         0.0000000000         0.0000000000        -0.0000230605       -0.0000691816     -116.3513551020
atom        10.0000000000       10.0000000000       10.6480800000 C         0.0000000000         0.0000000000        -0.0000691816       -0.0001153027     -223.1982336301
atom        10.0000000000       10.0000000000        9.3519200000 C         0.0000000000         0.0000000000         0.0000461211        0.0001844844      223.1986487199
energy      -658.8434946028
charge 0
end
begin
comment generated by PY
lattice        20.0000000000         0.0000000000         0.0000000000
lattice         0.0000000000        20.0000000000         0.0000000000
lattice         0.0000000000         0.0000000000        20.0000000000
atom        10.0000000000       10.0000000000        8.2760100000 H         0.0000000000         0.0000000000        -0.0000230605       -0.0000230605      115.9016505250
atom        10.0000000000       10.0000000000       11.7239900000 H         0.0000000000         0.0000000000         0.0000000000        0.0000230605     -115.9021578571
atom        10.0000000000       10.0000000000       10.6580800000 C         0.0000000000         0.0000000000         0.0000230605        0.0000461211     -241.5014881331
atom        10.0000000000       10.0000000000        9.3419200000 C         0.0000000000         0.0000000000        -0.0000230605       -0.0000461211      241.5019954652
energy      -651.8688118019
charge 0
end
begin
comment generated by PY
lattice        20.0000000000         0.0000000000         0.0000000000
lattice         0.0000000000        20.0000000000         0.0000000000
lattice         0.0000000000         0.0000000000        20.0000000000
atom        10.0000000000       10.0000000000        8.2660100000 H         0.0000000000         0.0000000000        -0.0000000000       -0.0000230605      115.4466001584
atom        10.0000000000       10.0000000000       11.7339900000 H         0.0000000000         0.0000000000         0.0000000000        0.0000230605     -115.4472458538
atom        10.0000000000       10.0000000000       10.6680800000 C         0.0000000000         0.0000000000         0.0000000000        0.0000230605     -256.9693739551
atom        10.0000000000       10.0000000000        9.3319200000 C         0.0000000000         0.0000000000        -0.0000000000       -0.0000230605      256.9700196504
energy      -644.5662729517
charge 0
end
begin
comment generated by PY
lattice        20.0000000000         0.0000000000         0.0000000000
lattice         0.0000000000        20.0000000000         0.0000000000
lattice         0.0000000000         0.0000000000        20.0000000000
atom        10.0000000000       10.0000000000        8.2560100000 H         0.0000000000         0.0000000000         0.0000230605        0.0000000000      115.0049899524
atom        10.0000000000       10.0000000000       11.7439900000 H         0.0000000000         0.0000000000        -0.0000230605       -0.0000230605     -115.0053819817
atom        10.0000000000       10.0000000000       10.6780800000 C         0.0000000000         0.0000000000        -0.0000000000       -0.0000000000     -269.9639086341
atom        10.0000000000       10.0000000000        9.3219200000 C         0.0000000000         0.0000000000         0.0000230605        0.0000230605      269.9642776029
energy      -636.9886370075
charge 0
end
begin
comment generated by PY
lattice        20.0000000000         0.0000000000         0.0000000000
lattice         0.0000000000        20.0000000000         0.0000000000
lattice         0.0000000000         0.0000000000        20.0000000000
atom        10.0000000000       10.0000000000        8.2460100000 H         0.0000000000         0.0000000000         0.0000000000        0.0000000000      114.5514617006
atom        10.0000000000       10.0000000000       11.7539900000 H         0.0000000000         0.0000000000        -0.0000230605       -0.0000000000     -114.5533987866
atom        10.0000000000       10.0000000000       10.6880800000 C         0.0000000000         0.0000000000        -0.0000230605       -0.0000461211     -280.6625641132
atom        10.0000000000       10.0000000000        9.3119200000 C         0.0000000000         0.0000000000         0.0000230605        0.0000461211      280.6645011992
energy      -629.1833117064
charge 0
end
begin
comment generated by PY
lattice        20.0000000000         0.0000000000         0.0000000000
lattice         0.0000000000        20.0000000000         0.0000000000
lattice         0.0000000000         0.0000000000        20.0000000000
atom        10.0000000000       10.0000000000        8.2360100000 H         0.0000000000         0.0000000000         0.0000230605       -0.0000461211      114.1136251466
atom        10.0000000000       10.0000000000       11.7639900000 H         0.0000000000         0.0000000000         0.0000230605        0.0000461211     -114.1171303499
atom        10.0000000000       10.0000000000       10.6980800000 C         0.0000000000         0.0000000000        -0.0000461211        0.0001383633     -289.3947970752
atom        10.0000000000       10.0000000000        9.3019200000 C         0.0000000000         0.0000000000         0.0000000000       -0.0001153027      289.3983022785
energy      -621.1929727221
charge 0
end
begin
comment generated by PY
lattice        20.0000000000         0.0000000000         0.0000000000
lattice         0.0000000000        20.0000000000         0.0000000000
lattice         0.0000000000         0.0000000000        20.0000000000
atom        10.0000000000       10.0000000000        8.2260100000 H         0.0000000000         0.0000000000         0.0000230605        0.0000461211      113.6858388526
atom        10.0000000000       10.0000000000       11.7739900000 H         0.0000000000         0.0000000000        -0.0000461211       -0.0000230605     -113.6857004893
atom        10.0000000000       10.0000000000       10.7080800000 C         0.0000000000         0.0000000000        -0.0000000000       -0.0000922422     -296.2534970723
atom        10.0000000000       10.0000000000        9.2919200000 C         0.0000000000         0.0000000000         0.0000461211        0.0000922422      296.2533587090
energy      -613.0557962832