begin
comment generated by PY
lattice        40.0000000000         0.0000000000         0.0000000000
lattice         0.0000000000        40.0000000000         0.0000000000
lattice         0.0000000000         0.0000000000        40.0000000000
atom        20.2027700000       19.8509200000       18.3696400000 H         0.0000000000         0.0000000000       -23.0845292979       23.1519947309      110.0370596160
atom        19.6578100000       20.1315400000       21.5547300000 H         0.0000000000         0.0000000000        39.7601340051      -17.6202874449      -79.2426850142
atom        20.0025200000       19.9787300000       20.6079800000 C         0.0000000000         0.0000000000       -49.1677839286       33.1120380089     -131.1354166433
atom        20.0090900000       20.0227300000       19.3983200000 C         0.0000000000         0.0000000000        32.4887893208      -38.6452211699      100.3384670179
energy      -686.2621034237
charge 0
end
begin
comment generated by PY
lattice        40.0000000000         0.0000000000         0.0000000000
lattice         0.0000000000        40.0000000000         0.0000000000
lattice         0.0000000000         0.0000000000        40.0000000000
atom        20.4216300000       19.8203400000       18.3952300000 H         0.0000000000         0.0000000000       -40.5614999667       24.7618138531      106.1733253414
atom        19.4930400000       20.1721000000       21.5001800000 H         0.0000000000         0.0000000000        40.1758925236      -17.7318692110      -59.2355295764
atom        19.9350200000       19.9868000000       20.6245300000 C         0.0000000000         0.0000000000       -20.2451486964       30.4182756400     -208.6945799649
atom        20.0720800000       20.0138300000       19.3841800000 C         0.0000000000         0.0000000000        20.6300565652      -37.4490043407      161.7511800610
energy      -677.8196842204
charge 0
end
begin
comment generated by PY
lattice        40.0000000000         0.0000000000         0.0000000000
lattice         0.0000000000        40.0000000000         0.0000000000
lattice         0.0000000000         0.0000000000        40.0000000000
atom        20.4827500000       19.9289300000       18.4194000000 H         0.0000000000         0.0000000000       -37.1668020000        4.8378999298      107.1729566836
atom        19.5750500000       20.0876600000       21.5519100000 H         0.0000000000         0.0000000000        21.8784563660       -6.2248249843      -81.4699094558
atom        19.8418900000       20.0232400000       20.5812100000 C         0.0000000000         0.0000000000        31.2250394691       -1.5581431476     -120.9016295203
atom        20.1533000000       19.9753800000       19.4211800000 C         0.0000000000         0.0000000000       -15.9340957509        2.9426879657       95.1952691185
energy      -692.3209091451
charge 0
end
begin
comment generated by PY
lattice        40.0000000000         0.0000000000         0.0000000000
lattice         0.0000000000        40.0000000000         0.0000000000
lattice         0.0000000000         0.0000000000        40.0000000000
atom        20.4770400000       20.0245000000       18.3967700000 H         0.0000000000         0.0000000000       -23.4370097059      -12.9491371778      114.3177063936
atom        19.6469900000       19.9760900000       21.5747600000 H         0.0000000000         0.0000000000         0.4167212672       11.1785518805      -86.6842164338
atom        19.7453100000       20.0628000000       20.5670300000 C         0.0000000000         0.0000000000       113.2057061269      -43.8516482328     -150.1990629400
atom        20.2443600000       19.9371500000       19.4353400000 C         0.0000000000         0.0000000000       -90.1854176882       45.6231959520      122.5613761732
energy      -678.1387009370
charge 0
end
begin
comment generated by PY
lattice        40.0000000000         0.0000000000         0.0000000000
lattice         0.0000000000        40.0000000000         0.0000000000
lattice         0.0000000000         0.0000000000        40.0000000000
atom        20.5711000000       19.9943300000       18.4607100000 H         0.0000000000         0.0000000000       -20.3724220838      -11.3930695265      112.5354624242
atom        19.4402300000       19.9721200000       21.4992900000 H         0.0000000000         0.0000000000        13.7295398762       15.3249271328      -88.5531569559
atom        19.6820200000       20.0774000000       20.5134100000 C         0.0000000000         0.0000000000       108.0443557358      -50.3799239944      -83.2945064831
atom        20.3170400000       19.9254000000       19.4899200000 C         0.0000000000         0.0000000000      -101.3996056238       46.4464752103       59.3094341749
energy      -684.6010407995
charge 0
end
begin
comment generated by PY
lattice        40.0000000000         0.0000000000         0.0000000000
lattice         0.0000000000        40.0000000000         0.0000000000
lattice         0.0000000000         0.0000000000        40.0000000000
atom        20.8507300000       19.8532300000       18.5644500000 H         0.0000000000         0.0000000000       -55.5870839116       10.4463835386      106.3752773075
atom        19.0933100000       20.1288900000       21.3668000000 H         0.0000000000         0.0000000000        58.0815913386       -6.5525054239      -84.5366958840
atom        19.6686900000       20.0562000000       20.5072500000 C         0.0000000000         0.0000000000        69.8846543937      -15.0058791065     -106.5702975486
atom        20.3359700000       19.9452900000       19.4984800000 C         0.0000000000         0.0000000000       -72.3763945550       11.1094912710       84.7346297249
energy      -685.1109278707
charge 0
end
begin
comment generated by PY
lattice        40.0000000000         0.0000000000         0.0000000000
lattice         0.0000000000        40.0000000000         0.0000000000
lattice         0.0000000000         0.0000000000        40.0000000000
atom        21.1462400000       19.7352000000       18.8050700000 H         0.0000000000         0.0000000000       -93.9911399229       28.5974324072       74.3091229387
atom        18.8808100000       20.2889400000       21.1552900000 H         0.0000000000         0.0000000000        78.1322401795      -29.0431104932      -57.6952761631
atom        19.6521800000       20.0333200000       20.5102100000 C         0.0000000000         0.0000000000        54.2168843771       21.3585722196     -152.4029407996
atom        20.3455700000       19.9646700000       19.4930900000 C         0.0000000000         0.0000000000       -38.3565699696      -20.9152463095      135.7944057079
energy      -677.4068012299
charge 0
end
begin
comment generated by PY
lattice        40.0000000000         0.0000000000         0.0000000000
lattice         0.0000000000        40.0000000000         0.0000000000
lattice         0.0000000000         0.0000000000        40.0000000000
atom        21.3155100000       19.7210300000       19.0718700000 H         0.0000000000         0.0000000000      -105.1578890329       28.3613461610       41.5839448997
atom        18.7785200000       20.3232700000       21.0027300000 H         0.0000000000         0.0000000000        80.1578398815      -32.4686089478      -46.8599306957
atom        19.6033800000       20.0393500000       20.4520800000 C         0.0000000000         0.0000000000        37.9595452683       27.0814063940     -110.8691165048
atom        20.3888000000       19.9569600000       19.5417100000 C         0.0000000000         0.0000000000       -12.9601418122      -22.9740513649      116.1484997462
energy      -684.9128123030
charge 0
end
begin
comment generated by PY
lattice        40.0000000000         0.0000000000         0.0000000000
lattice         0.0000000000        40.0000000000         0.0000000000
lattice         0.0000000000         0.0000000000        40.0000000000
atom        21.3487100000       19.7824100000       18.9952800000 H         0.0000000000         0.0000000000      -102.8768258097       16.4717565129       69.6582590560
atom        18.7172900000       20.2115200000       21.0414300000 H         0.0000000000         0.0000000000        83.2561448101      -14.0389839542      -68.9751174267
atom        19.5238500000       20.0768600000       20.3848700000 C         0.0000000000         0.0000000000       115.1403833285      -18.0220503069      -94.3550793865
atom        20.4706600000       19.9236400000       19.6120700000 C         0.0000000000         0.0000000000       -95.5225083836       15.5873845410       93.6722453021
energy      -678.2359348646
charge 0
end
begin
comment generated by PY
lattice        40.0000000000         0.0000000000         0.0000000000
lattice         0.0000000000        40.0000000000         0.0000000000
lattice         0.0000000000         0.0000000000        40.0000000000
atom        21.2400900000       19.8582000000       18.9135200000 H         0.0000000000         0.0000000000       -75.7528340708        1.8447492908       96.0361802693
atom        18.7167600000       20.0970400000       20.9937200000 H         0.0000000000         0.0000000000        73.0072083983        5.7978652741      -71.8935757858
atom        19.4851100000       20.1059200000       20.2958900000 C         0.0000000000         0.0000000000       103.8596194169      -46.7182878172      -15.3614129578
atom        20.5184900000       19.8978100000       19.7118300000 C         0.0000000000         0.0000000000      -101.1077516681       39.0734602581       -8.7689155563
energy      -684.0059009860
charge 0
end
begin
comment generated by PY
lattice        40.0000000000         0.0000000000         0.0000000000
lattice         0.0000000000        40.0000000000         0.0000000000
lattice         0.0000000000         0.0000000000        40.0000000000
atom        21.3458500000       19.8517600000       19.0356000000 H         0.0000000000         0.0000000000       -82.1174856119        1.4072880865       92.3479775550
atom        18.5790500000       20.1286000000       20.8269600000 H         0.0000000000         0.0000000000        86.9721591965        2.1691053046      -64.6895034510
atom        19.4391800000       20.1127400000       20.2248600000 C         0.0000000000         0.0000000000       137.0383377323      -51.2391372895      -10.3624009394
atom        20.5670700000       19.8888900000       19.7865900000 C         0.0000000000         0.0000000000      -141.8957094011       47.6607345702      -17.2892964240
energy      -675.6414299702
charge 0
end
begin
comment generated by PY
lattice        40.0000000000         0.0000000000         0.0000000000
lattice         0.0000000000        40.0000000000         0.0000000000
lattice         0.0000000000         0.0000000000        40.0000000000
atom        21.5663400000       19.7585600000       19.4087500000 H         0.0000000000         0.0000000000      -117.1434497562       16.8444576077       47.0676658749
atom        18.4634800000       20.2658400000       20.5747600000 H         0.0000000000         0.0000000000       102.8840113498      -19.3865028761      -40.7243073271
atom        19.4320500000       20.0904200000       20.1979700000 C         0.0000000000         0.0000000000       111.5707420079      -15.0936801280      -32.5604981815
atom        20.5654600000       19.9075500000       19.8034000000 C         0.0000000000         0.0000000000       -97.3146012598       17.6343648241       26.2204142315
energy      -681.5470104877
charge 0
end
begin
comment generated by PY
lattice        40.0000000000         0.0000000000         0.0000000000
lattice         0.0000000000        40.0000000000         0.0000000000
lattice         0.0000000000         0.0000000000        40.0000000000
atom        21.6144700000       19.6727400000       19.8456100000 H         0.0000000000         0.0000000000      -118.8082229130       30.6570676926      -13.7043155554
atom        18.4253400000       20.3509600000       20.2932800000 H         0.0000000000         0.0000000000       103.9478604002      -32.5238832003       -8.4152102281
atom        19.4308800000       20.0723600000       20.1808600000 C         0.0000000000         0.0000000000        80.4255156604       13.8382772730      -63.7480077248
atom        20.5658000000       19.9256600000       19.8075800000 C         0.0000000000         0.0000000000       -65.5771056307      -11.9713656442       85.8742602489
energy      -682.7860119558
charge 0
end
begin
comment generated by PY
lattice        40.0000000000         0.0000000000         0.0000000000
lattice         0.0000000000        40.0000000000         0.0000000000
lattice         0.0000000000         0.0000000000        40.0000000000
atom        21.6337400000       19.6462500000       20.0809900000 H         0.0000000000         0.0000000000      -115.7744512050       33.7625734408      -31.5041270602
atom        18.3685900000       20.3232300000       20.0206900000 H         0.0000000000         0.0000000000       108.9184359559      -27.2818397799       14.3608192239
atom        19.3960300000       20.0810500000       20.1155300000 C         0.0000000000         0.0000000000       140.0178020800       -1.8267654069      -74.6080209501
atom        20.6037700000       19.9214900000       19.8760100000 C         0.0000000000         0.0000000000      -133.1682974503       -4.6499887793       91.7495378214
energy      -671.5993152995
charge 0
end
begin
comment generated by PY
lattice        40.0000000000         0.0000000000         0.0000000000
lattice         0.0000000000        40.0000000000         0.0000000000
lattice         0.0000000000         0.0000000000        40.0000000000
atom        21.6469900000       19.7214100000       19.9865400000 H         0.0000000000         0.0000000000      -121.0087616195       21.7100623092        1.4320405524
atom        18.3681600000       20.2364200000       19.9548400000 H         0.0000000000         0.0000000000       111.2500862482      -13.5468477164        8.2235207276
atom        19.4105500000       20.0982500000       20.0107800000 C         0.0000000000         0.0000000000        76.6604354733      -17.6806860589      -12.3700260983
atom        20.5881900000       19.9052600000       19.9941000000 C         0.0000000000         0.0000000000       -66.8964482052        9.5203923979        2.7139103651
energy      -687.3545020124
charge 0
end
begin
comment generated by PY
lattice        40.0000000000         0.0000000000         0.0000000000
lattice         0.0000000000        40.0000000000         0.0000000000
lattice         0.0000000000         0.0000000000        40.0000000000
atom        21.6678300000       19.8191700000       19.9155400000 H         0.0000000000         0.0000000000      -123.2218787926        4.9716245600       29.5657880856
atom        18.3412600000       20.2033500000       19.9786000000 H         0.0000000000         0.0000000000       116.5603649981       -8.2218956930      -11.6673752427
atom        19.4020900000       20.1129700000       19.9024300000 C         0.0000000000         0.0000000000       122.0460729234      -41.1282239657       62.1293585238
atom        20.5971500000       19.8851500000       20.1063900000 C         0.0000000000         0.0000000000      -115.3833752832       44.3760606807      -80.0274385190
energy      -672.8078202930
charge 0
end
begin
comment generated by PY
lattice        40.0000000000         0.0000000000         0.0000000000
lattice         0.0000000000        40.0000000000         0.0000000000
lattice         0.0000000000         0.0000000000        40.0000000000
atom        21.6501500000       19.8350900000       20.1808800000 H         0.0000000000         0.0000000000      -126.4127762444        3.0260563800        7.0898224116
atom        18.3774400000       20.2322000000       19.8465200000 H         0.0000000000         0.0000000000       115.1122792203      -13.5340856455      -11.7907977073
atom        19.4337800000       20.1026200000       19.8128500000 C         0.0000000000         0.0000000000        70.6305321067      -25.1000762590       86.8950401605
atom        20.5639200000       19.8917800000       20.1848600000 C         0.0000000000         0.0000000000       -59.3428647180       35.6115323645      -82.1823771670
energy      -678.6552507110
charge 0
end
begin
comment generated by PY
lattice        40.0000000000         0.0000000000         0.0000000000
lattice         0.0000000000        40.0000000000         0.0000000000
lattice         0.0000000000         0.0000000000        40.0000000000
atom        21.5607300000       19.7426300000       20.5894800000 H         0.0000000000         0.0000000000      -117.1033685016       20.0564935263      -47.3846995035
atom        18.4264100000       20.2702800000       19.5015200000 H         0.0000000000         0.0000000000       115.0883059302      -21.5231649031       30.4882127807
atom        19.4404300000       20.0862600000       19.7931000000 C         0.0000000000         0.0000000000        80.7780265269       -8.1212884519       41.3846210017
atom        20.5606400000       19.9126600000       20.1993200000 C         0.0000000000         0.0000000000       -78.7586746935        9.5866453775      -24.4826458685
energy      -681.5406319981
charge 0
end
begin
comment generated by PY
lattice        40.0000000000         0.0000000000         0.0000000000
lattice         0.0000000000        40.0000000000         0.0000000000
lattice         0.0000000000         0.0000000000        40.0000000000
atom        21.4000300000       19.6714300000       20.8936100000 H         0.0000000000         0.0000000000       -94.7992008893       33.2459072376      -84.3725602776
atom        18.5983200000       20.2579400000       19.1094900000 H         0.0000000000         0.0000000000        92.2232719715      -20.6750617589       81.7531667160
atom        19.4310600000       20.0775600000       19.7802300000 C         0.0000000000         0.0000000000       134.3134926672       -5.6432696069       -5.2285984953
atom        20.5690700000       19.9283200000       20.2195200000 C         0.0000000000         0.0000000000      -131.7397081674       -6.9280000222        7.8459827287
energy      -670.4797018022
charge 0
end
begin
comment generated by PY
lattice        40.0000000000         0.0000000000         0.0000000000
lattice         0.0000000000        40.0000000000         0.0000000000
lattice         0.0000000000         0.0000000000        40.0000000000
atom        21.2785500000       19.7243000000       21.0330200000 H         0.0000000000         0.0000000000       -84.8188832389       26.2940524694      -89.9961640949
atom        18.8120200000       20.2076300000       18.8918700000 H         0.0000000000         0.0000000000        65.2614429664      -13.9004836293       98.0371114874
atom        19.4761000000       20.0743000000       19.7181900000 C         0.0000000000         0.0000000000        96.7481831954       -5.4708532927      -25.2307067321
atom        20.5163600000       19.9313600000       20.2880600000 C         0.0000000000         0.0000000000       -77.1832715182       -6.9275621414       17.1865386206
energy      -681.1283812441
charge 0
end
begin
comment generated by PY
lattice        40.0000000000         0.0000000000         0.0000000000
lattice         0.0000000000        40.0000000000         0.0000000000
lattice         0.0000000000         0.0000000000        40.0000000000
atom        21.3229700000       19.8268200000       21.0700900000 H         0.0000000000         0.0000000000      -103.9302598309       10.3494595524      -80.9666258600
atom        18.7248000000       20.1961400000       18.8960000000 H         0.0000000000         0.0000000000        93.3428181186      -13.9508268532       84.7298047746
atom        19.5311000000       20.0768200000       19.6129400000 C         0.0000000000         0.0000000000        94.5886260118      -18.2371785346       71.4387810381
atom        20.4649300000       19.9212700000       20.3898800000 C         0.0000000000         0.0000000000       -84.0002849381       21.8387111382      -75.2028593140
energy      -673.5223815706
charge 0
end
begin
comment generated by PY
lattice        40.0000000000         0.0000000000         0.0000000000
lattice         0.0000000000        40.0000000000         0.0000000000
lattice         0.0000000000         0.0000000000        40.0000000000
atom        21.2725700000       19.8890600000       21.0905600000 H         0.0000000000         0.0000000000      -108.6196153731        1.5368423518      -71.6730161111
atom        18.6841800000       20.1764100000       19.0107400000 H         0.0000000000         0.0000000000       112.0371723481      -12.2974179548       51.8422415118
atom        19.6228800000       20.0696100000       19.5358700000 C         0.0000000000         0.0000000000        -2.0374121248      -12.5902768533      101.7474292784
atom        20.3807200000       19.9249400000       20.4557000000 C         0.0000000000         0.0000000000        -1.3860942587       23.3531954506      -81.9186764624
energy      -677.5294348191
charge 0
end
begin
comment generated by PY
lattice        40.0000000000         0.0000000000         0.0000000000
lattice         0.0000000000        40.0000000000         0.0000000000
lattice         0.0000000000         0.0000000000        40.0000000000
atom        21.1039000000       19.8570200000       21.2821200000 H         0.0000000000         0.0000000000       -96.3243725490       10.0700441461      -90.3148867977
atom        18.8139300000       20.1472500000       18.8315600000 H         0.0000000000         0.0000000000       107.1320837484      -10.4430918557       68.1763085973
atom        19.6859900000       20.0556900000       19.4792000000 C         0.0000000000         0.0000000000        -1.5838349687      -10.0069405893      124.5986735070
atom        20.3208500000       19.9439600000       20.5113400000 C         0.0000000000         0.0000000000        -9.2254290451       10.3805156309     -102.4550987126
energy      -672.2266991161
charge 0
end
begin
comment generated by PY
lattice        40.0000000000         0.0000000000         0.0000000000
lattice         0.0000000000        40.0000000000         0.0000000000
lattice         0.0000000000         0.0000000000        40.0000000000
atom        20.8450000000       19.8257200000       21.4724800000 H         0.0000000000         0.0000000000       -66.0648314858       18.1522960240     -114.5604208877
atom        19.1737800000       20.1233100000       18.5209000000 H         0.0000000000         0.0000000000        61.8658007997       -9.1632663939      114.0128559070
atom        19.6980100000       20.0423400000       19.4762300000 C         0.0000000000         0.0000000000        49.6371124943       -4.5912185270       79.3036688405
atom        20.3004300000       19.9619000000       20.5243200000 C         0.0000000000         0.0000000000       -45.4403878630       -4.3982694352      -78.7567264946
energy      -675.3148722161
charge 0
end
begin
comment generated by PY
lattice        40.0000000000         0.0000000000         0.0000000000
lattice         0.0000000000        40.0000000000         0.0000000000
lattice         0.0000000000         0.0000000000        40.0000000000
atom        20.5369100000       19.8774800000       21.5892900000 H         0.0000000000         0.0000000000       -27.2905811699       11.9308009154     -128.3947773610
atom        19.6037700000       20.1018600000       18.3975600000 H         0.0000000000         0.0000000000         2.2809958271       -8.0445406817      125.8456306947
atom        19.7132400000       20.0319900000       19.4752500000 C         0.0000000000         0.0000000000        91.8780887531       -0.0297774813       21.8821353627
atom        20.2750400000       19.9697300000       20.5258400000 C         0.0000000000         0.0000000000       -66.8659667500       -3.8576127193      -19.3348945383
energy      -677.8062737124
charge 0
end
begin
comment generated by PY
lattice        40.0000000000         0.0000000000         0.0000000000
lattice         0.0000000000        40.0000000000         0.0000000000
lattice         0.0000000000         0.0000000000        40.0000000000
atom        20.2905900000       19.9832000000       21.6868700000 H         0.0000000000         0.0000000000        -6.3807429836       -2.9168536649     -134.9196149852
atom        19.7740800000       20.0729000000       18.3238600000 H         0.0000000000         0.0000000000        -4.8867976699       -6.5589548341      129.7604282222
atom        19.7888900000       20.0232700000       19.4200100000 C         0.0000000000         0.0000000000        97.3338671611       -4.4111147365       99.3457486968
atom        20.2057300000       19.9720600000       20.5791000000 C         0.0000000000         0.0000000000       -86.0627713044       13.8827953974      -94.1923966782
energy      -666.6321903451
charge 0
end
begin
comment generated by PY
lattice        40.0000000000         0.0000000000         0.0000000000
lattice         0.0000000000        40.0000000000         0.0000000000
lattice         0.0000000000         0.0000000000        40.0000000000
atom        20.2487900000       20.0102300000       21.6676800000 H         0.0000000000         0.0000000000       -17.4669083544       -4.7710906485     -129.1893351979
atom        19.6713500000       20.0254400000       18.3570000000 H         0.0000000000         0.0000000000        30.7791952698       -1.3996140490      122.2695994404
atom        19.9136600000       20.0140600000       19.4112300000 C         0.0000000000         0.0000000000        -4.8029152212       -4.6591748593       56.7977395077
atom        20.0929800000       19.9829700000       20.5867200000 C         0.0000000000         0.0000000000        -8.5101296317       10.8275273809      -49.8728151269
energy      -682.3445999688
charge 0
end
begin
comment generated by PY
lattice        40.0000000000         0.0000000000         0.0000000000
lattice         0.0000000000        40.0000000000         0.0000000000
lattice         0.0000000000         0.0000000000        40.0000000000
atom        20.2617600000       19.9746800000       21.6811300000 H         0.0000000000         0.0000000000       -38.3037599166        4.5107613123     -128.1469748836
atom        19.6612500000       19.9737700000       18.3554300000 H         0.0000000000         0.0000000000        50.3796248050        4.2399226001      118.2704621309
atom        20.0249600000       20.0012300000       19.3868000000 C         0.0000000000         0.0000000000       -70.0480717244       -3.8391026642      111.9752320315
atom        19.9814500000       20.0030600000       20.6101600000 C         0.0000000000         0.0000000000        57.9741747404       -4.9096080410     -102.0898409678
energy      -669.2019380480
charge 0
end
begin
comment generated by PY
lattice        40.0000000000         0.0000000000         0.0000000000
lattice         0.0000000000        40.0000000000         0.0000000000
lattice         0.0000000000         0.0000000000        40.0000000000
atom        20.0581400000       19.9756300000       21.6848800000 H         0.0000000000         0.0000000000       -25.8089599740        8.2894151578     -129.4923974047
atom        20.0008400000       19.9500600000       18.3176700000 H         0.0000000000         0.0000000000        15.6409702388        4.4138032389      127.3730590419
atom        20.0955200000       19.9817000000       19.4038600000 C         0.0000000000         0.0000000000       -59.6144896354        4.5278796081       76.3365083686
atom        19.8995700000       20.0244900000       20.5959300000 C         0.0000000000         0.0000000000        69.7826016127      -17.2271907721      -74.2119667183
energy      -674.4582804275
charge 0
end
begin
comment generated by PY
lattice        40.0000000000         0.0000000000         0.0000000000
lattice         0.0000000000        40.0000000000         0.0000000000
lattice         0.0000000000         0.0000000000        40.0000000000
atom        19.6647000000       20.0585000000       21.6570500000 H         0.0000000000         0.0000000000        25.8661604945       -3.1434667640     -128.7067404201
atom        20.4150000000       19.9551200000       18.3750200000 H         0.0000000000         0.0000000000       -38.8232509372        0.7154210479      119.9008804365
atom        20.1076100000       19.9694200000       19.4123900000 C         0.0000000000         0.0000000000         5.4594489470       10.0794258314       68.5923114438
atom        19.8857600000       20.0294500000       20.5849400000 C         0.0000000000         0.0000000000         7.4942707769       -7.6498711797      -59.7854137356
energy      -680.9316323762
charge 0
end
begin
comment generated by PY
lattice        40.0000000000         0.0000000000         0.0000000000
lattice         0.0000000000        40.0000000000         0.0000000000
lattice         0.0000000000         0.0000000000        40.0000000000
atom        19.2450500000       20.1590300000       21.5148800000 H         0.0000000000         0.0000000000        79.6663080332      -17.3340826008     -106.5519637785
atom        20.7154100000       19.9231100000       18.4715600000 H         0.0000000000         0.0000000000       -71.4289734773        3.2173164258      106.0712512794
atom        20.1443900000       19.9621800000       19.4018600000 C         0.0000000000         0.0000000000        25.3979598874        9.6776130069      133.9971027906
atom        19.8589100000       20.0309800000       20.5992700000 C         0.0000000000         0.0000000000       -33.6363552285        4.4352940565     -133.5178502252
energy      -667.0007956547