begin
comment generated by PY
lattice        40.0000000000         0.0000000000         0.0000000000
lattice         0.0000000000        40.0000000000         0.0000000000
lattice         0.0000000000         0.0000000000        40.0000000000
atom        19.8090600000       20.9759900000       21.0808100000 H         0.0000000000         0.0000000000        23.9575545477     -111.9788954160      -34.0424963955
atom        19.7926700000       19.1409400000       21.3930600000 H         0.0000000000         0.0000000000        27.3551032974       85.0040361925      -85.2803780794
atom        19.9782200000       21.0440900000       18.9644700000 H         0.0000000000         0.0000000000        16.5614963642     -119.1006446937       30.0782519179
atom        20.0136400000       19.2906400000       18.5933300000 H         0.0000000000         0.0000000000        11.0545487072       45.0426260877       64.6348281872
atom        19.9690500000       19.9684200000       20.6756700000 C         0.0000000000         0.0000000000       -38.8523585837       28.2701763563      -65.0571942678
atom        20.0647900000       19.9939700000       19.3217000000 C         0.0000000000         0.0000000000       -40.0743741861       72.7665050729       89.6694638741
energy      -920.8988155701
charge 0
end
begin
comment generated by PY
lattice        40.0000000000         0.0000000000         0.0000000000
lattice         0.0000000000        40.0000000000         0.0000000000
lattice         0.0000000000         0.0000000000        40.0000000000
atom        19.7903800000       20.8965100000       21.2034100000 H         0.0000000000         0.0000000000         9.6220739424     -104.8455947137      -56.4145908824
atom        19.8046700000       19.0324100000       21.2756900000 H         0.0000000000         0.0000000000         8.1559630455       98.6275016662      -74.9960359267
atom        20.1909800000       21.0436200000       18.8821400000 H         0.0000000000         0.0000000000        -8.7574622546     -113.0046739213       52.2013298571
atom        20.2157100000       19.2700600000       18.6744600000 H         0.0000000000         0.0000000000        -7.4138236327       55.4811058449       59.4053509029
atom        19.8840300000       19.9492000000       20.6509400000 C         0.0000000000         0.0000000000        12.4902357418       19.5855394739      -31.9175382008
atom        20.1158300000       20.0306000000       19.3460900000 C         0.0000000000         0.0000000000       -14.0989731101       44.1454062530       51.7186094392
energy      -929.5152727393
charge 0
end
begin
comment generated by PY
lattice        40.0000000000         0.0000000000         0.0000000000
lattice         0.0000000000        40.0000000000         0.0000000000
lattice         0.0000000000         0.0000000000        40.0000000000
atom        19.7462100000       20.7559900000       21.4198800000 H         0.0000000000         0.0000000000         2.7943105607      -88.3475257646      -89.4664301703
atom        19.7994700000       18.8833800000       20.9635800000 H         0.0000000000         0.0000000000        -1.4636571213      122.9063626105      -22.2747864969
atom        20.3578100000       21.0323800000       18.7764300000 H         0.0000000000         0.0000000000       -26.7230765354     -112.6197605068       65.0960010859
atom        20.3806700000       19.1311100000       18.9135400000 H         0.0000000000         0.0000000000       -26.6993906353       93.8769390413       26.4739867052
atom        19.8273600000       19.9539900000       20.6506300000 C         0.0000000000         0.0000000000        40.4775508728      -22.8972759883      -60.3892956414
atom        20.1489800000       20.0624200000       19.3432600000 C         0.0000000000         0.0000000000        11.6131720734        7.0765711331       80.5495476967
energy      -914.4106617881
charge 0
end
begin
comment generated by PY
lattice        40.0000000000         0.0000000000         0.0000000000
lattice         0.0000000000        40.0000000000         0.0000000000
lattice         0.0000000000         0.0000000000        40.0000000000
atom        19.4594600000       20.6400100000       21.4245700000 H         0.0000000000         0.0000000000        41.1136222010      -68.2143816528      -98.8916543773
atom        19.6079000000       18.8823400000       20.9591400000 H         0.0000000000         0.0000000000        23.1079463089      114.8111682797      -37.8022249934
atom        20.4266700000       21.0326500000       18.7206000000 H         0.0000000000         0.0000000000       -25.5506010257     -101.8782370541       89.5462882428
atom        20.4238600000       19.1659100000       18.8033800000 H         0.0000000000         0.0000000000       -21.7144164529      101.7184393280       64.4744552530
atom        19.7839800000       19.9311400000       20.6183800000 C         0.0000000000         0.0000000000       -12.3008914696      -26.1573930744      -10.6937568177
atom        20.2228500000       20.0920900000       19.3893000000 C         0.0000000000         0.0000000000        -4.6550522295      -20.2910107977       -6.6412246202
energy      -908.8174016623
charge 0
end
begin
comment generated by PY
lattice        40.0000000000         0.0000000000         0.0000000000
lattice         0.0000000000        40.0000000000         0.0000000000
lattice         0.0000000000         0.0000000000        40.0000000000
atom        19.4083500000       20.8324000000       21.1332100000 H         0.0000000000         0.0000000000        37.5333193499     -112.9348576923      -46.7901045209
atom        19.5331700000       18.8797600000       21.0327600000 H         0.0000000000         0.0000000000        19.7468357604      115.2210137762      -44.2363317229
atom        20.4031800000       21.2301000000       19.0841800000 H         0.0000000000         0.0000000000       -10.3326032757     -138.0167523153       26.7635739606
atom        20.4838900000       19.2479900000       18.6686800000 H         0.0000000000         0.0000000000       -15.0786465244       99.7480971197       81.5619317307
atom        19.7312000000       19.8920400000       20.6125800000 C         0.0000000000         0.0000000000        17.0645684640       26.1462396603      -70.4195370244
atom        20.2830700000       20.0921200000       19.3941800000 C         0.0000000000         0.0000000000       -48.9352802548        9.8017455688       53.1137491997
energy      -899.7823036191
charge 0
end
begin
comment generated by PY
lattice        40.0000000000         0.0000000000         0.0000000000
lattice         0.0000000000        40.0000000000         0.0000000000
lattice         0.0000000000         0.0000000000        40.0000000000
atom        19.4433800000       20.7725700000       21.1714500000 H         0.0000000000         0.0000000000        20.4385082527     -100.6151867425      -70.5155706634
atom        19.4227900000       18.9528500000       21.0963400000 H         0.0000000000         0.0000000000        28.3518708522       91.7179841720      -70.7767328585
atom        20.5304700000       21.2215300000       19.2169500000 H         0.0000000000         0.0000000000       -27.0953244844     -129.6333666240       22.2137053965
atom        20.8134000000       19.4529000000       18.6505600000 H         0.0000000000         0.0000000000       -65.8748547659       61.1976499720       95.4272139501
atom        19.6737200000       19.8708400000       20.5490300000 C         0.0000000000         0.0000000000        18.9638654114       29.8260751207       24.2368199405
atom        20.3088000000       20.0958700000       19.4397000000 C         0.0000000000         0.0000000000        25.2110305951       47.4987637284       -0.5938451074
energy      -910.7349810343
charge 0
end
begin
comment generated by PY
lattice        40.0000000000         0.0000000000         0.0000000000
lattice         0.0000000000        40.0000000000         0.0000000000
lattice         0.0000000000         0.0000000000        40.0000000000
atom        19.2693000000       20.6623000000       21.2436700000 H         0.0000000000         0.0000000000        33.0890532979      -90.6904058612      -78.1806496133
atom        19.3691100000       18.8211500000       20.7856400000 H         0.0000000000         0.0000000000        26.1769406106      111.6244017604      -19.8285522928
atom        20.6284700000       21.1972500000       19.1524500000 H         0.0000000000         0.0000000000       -25.6733572371     -119.2601943080       31.6466323345
atom        20.8487800000       19.2757800000       18.8484700000 H         0.0000000000         0.0000000000       -57.7221772263      103.9633876437       63.0080923022
atom        19.6118600000       19.8579000000       20.5566400000 C         0.0000000000         0.0000000000        54.4933495690       22.2377070894      -69.1080714133
atom        20.3785100000       20.1457200000       19.4408400000 C         0.0000000000         0.0000000000       -30.3613415355      -27.8774156194       72.4639323156
energy      -905.3988341296
charge 0
end
begin
comment generated by PY
lattice        40.0000000000         0.0000000000         0.0000000000
lattice         0.0000000000        40.0000000000         0.0000000000
lattice         0.0000000000         0.0000000000        40.0000000000
atom        18.9966000000       20.5062100000       21.1244900000 H         0.0000000000         0.0000000000        75.7651145620      -63.2078624127      -66.3996214849
atom        19.3750200000       18.8326700000       20.5624600000 H         0.0000000000         0.0000000000        20.4955557305      100.9888166543       -0.4611337460
atom        20.7397200000       21.1062900000       19.1575100000 H         0.0000000000         0.0000000000       -36.0523880292      -91.8460825612       45.8317262635
atom        20.7033900000       19.2425800000       18.8702400000 H         0.0000000000         0.0000000000       -23.7778692942      110.6902634795       76.7880308216
atom        19.6105300000       19.8611400000       20.4836700000 C         0.0000000000         0.0000000000       -37.0492345475      -13.2301839586       -4.4127248337
atom        20.4048900000       20.1648600000       19.5400800000 C         0.0000000000         0.0000000000         0.6127413516      -43.4039664517      -51.3326943578
energy      -928.3284217255
charge 0
end
begin
comment generated by PY
lattice        40.0000000000         0.0000000000         0.0000000000
lattice         0.0000000000        40.0000000000         0.0000000000
lattice         0.0000000000         0.0000000000        40.0000000000
atom        18.9604600000       20.5611900000       21.0884200000 H         0.0000000000         0.0000000000        64.7170612116      -80.6567934788      -66.1358348130
atom        19.2645300000       18.7948800000       20.5926500000 H         0.0000000000         0.0000000000        20.7886747133      102.8683723636      -11.6787355677
atom        20.8088100000       21.1877600000       19.3801200000 H         0.0000000000         0.0000000000       -32.5074145132      -98.8505179554       14.7262278856
atom        20.9329200000       19.3685200000       18.8319500000 H         0.0000000000         0.0000000000       -47.6323172660       95.8182680069       85.3515042565
atom        19.5102000000       19.8230800000       20.4740400000 C         0.0000000000         0.0000000000        69.8227249813       32.2166109249      -69.9385962780
atom        20.4925700000       20.1842200000       19.5348600000 C         0.0000000000         0.0000000000       -75.1937332660      -51.3993607930       47.6803080502
energy      -909.2686948645
charge 0
end
begin
comment generated by PY
lattice        40.0000000000         0.0000000000         0.0000000000
lattice         0.0000000000        40.0000000000         0.0000000000
lattice         0.0000000000         0.0000000000        40.0000000000
atom        19.1421600000       20.6122000000       21.0284400000 H         0.0000000000         0.0000000000        29.3205126678      -88.0200748995      -72.1763922061
atom        19.1217000000       18.8580800000       20.5714500000 H         0.0000000000         0.0000000000        40.5126184592       89.4662044337      -23.9132243927
atom        20.7385600000       21.1612500000       19.6441900000 H         0.0000000000         0.0000000000       -19.5034756945      -83.2951073222       -9.0415695666
atom        21.1857600000       19.5357500000       19.0052600000 H         0.0000000000         0.0000000000       -90.5032813735       66.2942671918       62.9243917766
atom        19.5143700000       19.8153100000       20.3767300000 C         0.0000000000         0.0000000000        11.2051829443       28.6661741577       28.9972215901
atom        20.4699600000       20.1707600000       19.6025200000 C         0.0000000000         0.0000000000        28.9619629827      -13.1200884193       13.2066510487
energy      -939.5550166611
charge 0
end
begin
comment generated by PY
lattice        40.0000000000         0.0000000000         0.0000000000
lattice         0.0000000000        40.0000000000         0.0000000000
lattice         0.0000000000         0.0000000000        40.0000000000
atom        18.9473000000       20.5721000000       20.9352300000 H         0.0000000000         0.0000000000        48.2031832664      -89.0061631261      -62.2188097680
atom        19.0148200000       18.8016300000       20.3469900000 H         0.0000000000         0.0000000000        47.5735533982      101.1156167578       -0.2049249340
atom        20.8165800000       21.1918600000       19.7468200000 H         0.0000000000         0.0000000000       -15.2281533660      -83.3993511325      -12.9221790860
atom        21.1928400000       19.5158700000       19.0500300000 H         0.0000000000         0.0000000000       -71.3838897001       78.6131761277       64.0004802042
atom        19.4425300000       19.7885400000       20.3480200000 C         0.0000000000         0.0000000000        68.8994395301       53.0112363825      -42.1320444613
atom        20.5598400000       20.2046800000       19.6454000000 C         0.0000000000         0.0000000000       -78.0634566149      -60.3293414759       53.4813051565
energy      -924.1975465752
charge 0
end
begin
comment generated by PY
lattice        40.0000000000         0.0000000000         0.0000000000
lattice         0.0000000000        40.0000000000         0.0000000000
lattice         0.0000000000         0.0000000000        40.0000000000
atom        18.6802500000       20.3501700000       20.8538300000 H         0.0000000000         0.0000000000        90.1379203233      -47.4562020171      -55.4072315274
atom        19.1384900000       18.7810300000       20.1021300000 H         0.0000000000         0.0000000000        30.5314464580      109.0379737569       21.3817025152
atom        21.0144000000       21.1407500000       19.7172300000 H         0.0000000000         0.0000000000       -46.1169737019      -79.2933479151        9.5477290538
atom        21.0745100000       19.5192000000       19.0598600000 H         0.0000000000         0.0000000000       -50.5503303051       67.5351483886       76.1636035582
atom        19.4384400000       19.8130800000       20.2923400000 C         0.0000000000         0.0000000000        19.1696672355      -18.7274492648      -36.3495244302
atom        20.5692500000       20.2043100000       19.7298900000 C         0.0000000000         0.0000000000       -43.1657573279      -31.0852870377      -15.3406859159
energy      -935.4777890048
charge 0
end
begin
comment generated by PY
lattice        40.0000000000         0.0000000000         0.0000000000
lattice         0.0000000000        40.0000000000         0.0000000000
lattice         0.0000000000         0.0000000000        40.0000000000
atom        18.7357000000       20.3788700000       20.8551200000 H         0.0000000000         0.0000000000        64.0203279115      -64.9065887362      -71.7229123474
atom        19.1781400000       18.7515800000       19.9031500000 H         0.0000000000         0.0000000000        10.5907432579      117.7535140333       40.7577200872
atom        21.0453000000       21.1770200000       19.9609800000 H         0.0000000000         0.0000000000       -44.3161714778      -96.8053343056      -15.8659627631
atom        21.1033700000       19.4659400000       19.2521900000 H         0.0000000000         0.0000000000       -35.9393047272       83.4512424034       47.9034656309
atom        19.3891800000       19.7967000000       20.2100700000 C         0.0000000000         0.0000000000        86.0545750870        7.8462632293      -19.9698145822
atom        20.6056200000       20.2221700000       19.7923100000 C         0.0000000000         0.0000000000       -80.3961798437      -47.3404037434       18.8913937477
energy      -927.6576508892
charge 0
end
begin
comment generated by PY
lattice        40.0000000000         0.0000000000         0.0000000000
lattice         0.0000000000        40.0000000000         0.0000000000
lattice         0.0000000000         0.0000000000        40.0000000000
atom        18.7309100000       20.4099300000       20.7519700000 H         0.0000000000         0.0000000000        72.6296447468      -60.8689270075      -63.8020324443
atom        18.8638000000       18.8168100000       19.9192800000 H         0.0000000000         0.0000000000        69.2669546809      105.8673679767       17.7772555709
atom        20.9597500000       21.1604400000       20.2273300000 H         0.0000000000         0.0000000000       -40.8169689948      -98.7882544694      -43.0525956053
atom        21.3973400000       19.7234100000       19.3234900000 H         0.0000000000         0.0000000000       -82.4835139217       34.9489085557       42.9720215737
atom        19.3878500000       19.7871000000       20.1494700000 C         0.0000000000         0.0000000000        21.6590611507        9.8840261089        1.9227791791
atom        20.6161600000       20.2036900000       19.8320400000 C         0.0000000000         0.0000000000       -40.2337388972        8.9633437597       44.1747903211
energy      -927.1980192506
charge 0
end
begin
comment generated by PY
lattice        40.0000000000         0.0000000000         0.0000000000
lattice         0.0000000000        40.0000000000         0.0000000000
lattice         0.0000000000         0.0000000000        40.0000000000
atom        18.7915000000       20.5288000000       20.5998100000 H         0.0000000000         0.0000000000        47.8136963519      -91.0809659787      -48.2739112662
atom        18.8987500000       18.8383000000       19.6342100000 H         0.0000000000         0.0000000000        53.6095391228      110.2811002394       53.5730398987
atom        20.7820100000       21.1739400000       20.4435700000 H         0.0000000000         0.0000000000        -0.3180187335     -110.7995076913      -65.5047211839
atom        21.3813400000       19.7944100000       19.3114300000 H         0.0000000000         0.0000000000       -64.0022467492       30.0941767143       58.8930821797
atom        19.3726900000       19.7814200000       20.0861000000 C         0.0000000000         0.0000000000        57.4144496477       29.7250002364      -28.1700787467
atom        20.6395000000       20.1906500000       19.9148200000 C         0.0000000000         0.0000000000       -94.4910997966       31.7778443040       29.4742642001
energy      -919.2459476383
charge 0
end
begin
comment generated by PY
lattice        40.0000000000         0.0000000000         0.0000000000
lattice         0.0000000000        40.0000000000         0.0000000000
lattice         0.0000000000         0.0000000000        40.0000000000
atom        18.5613900000       20.2650800000       20.5797100000 H         0.0000000000         0.0000000000        87.5303868200      -45.0828675124      -59.0382948625
atom        19.0275500000       18.8937300000       19.4106900000 H         0.0000000000         0.0000000000        42.0649193005      101.0684424584       71.6903914824
atom        21.0543900000       21.1512900000       20.4690200000 H         0.0000000000         0.0000000000       -53.4025955454     -110.0546940766      -49.1237459774
atom        21.3363500000       19.6627700000       19.4244300000 H         0.0000000000         0.0000000000       -65.1562525927       52.6269594529       52.8679255318
atom        19.3670500000       19.7965100000       20.0195000000 C         0.0000000000         0.0000000000        33.1132174147        0.3516805920      -12.4718814302
atom        20.6346500000       20.2057500000       19.9901700000 C         0.0000000000         0.0000000000       -44.1382834865        1.0904176620       -3.9230549901
energy      -920.9829634542
charge 0
end
begin
comment generated by PY
lattice        40.0000000000         0.0000000000         0.0000000000
lattice         0.0000000000        40.0000000000         0.0000000000
lattice         0.0000000000         0.0000000000        40.0000000000
atom        18.4737500000       20.0749700000       20.5166400000 H         0.0000000000         0.0000000000        92.1608738255      -14.2515859443      -61.8636314829
atom        19.2831100000       18.9019800000       19.2707200000 H         0.0000000000         0.0000000000        -4.8794252364      106.5807612817       77.7269049092
atom        21.1315000000       21.0250200000       20.7189500000 H         0.0000000000         0.0000000000       -66.1583318691      -91.5856654696      -76.9557535777
atom        21.3275200000       19.5723700000       19.5402500000 H         0.0000000000         0.0000000000       -66.5641585896       73.5599892890       46.2904987117
atom        19.3508100000       19.8245200000       19.9485500000 C         0.0000000000         0.0000000000        79.2232491232      -46.4050225552       -4.7715397955
atom        20.6312200000       20.2109200000       20.0475700000 C         0.0000000000         0.0000000000       -33.7843980056      -27.8941281581       19.5696623659
energy      -910.2620351121
charge 0
end
begin
comment generated by PY
lattice        40.0000000000         0.0000000000         0.0000000000
lattice         0.0000000000        40.0000000000         0.0000000000
lattice         0.0000000000         0.0000000000        40.0000000000
atom        18.5298000000       20.2617600000       20.3759700000 H         0.0000000000         0.0000000000        87.4260294741      -49.4163524729      -48.2357002401
atom        19.1349400000       18.9979300000       19.1426100000 H         0.0000000000         0.0000000000        27.2433405610       93.9967523040       80.9186193150
atom        20.8564900000       20.9501900000       20.9548100000 H         0.0000000000         0.0000000000       -22.5611583294      -84.9209788208     -101.7957014533
atom        21.4502800000       19.7402900000       19.5390400000 H         0.0000000000         0.0000000000       -85.5000835908       51.9794262923       68.4179240980
atom        19.3750700000       19.8095300000       19.8822800000 C         0.0000000000         0.0000000000        41.1823726781        5.9775659998       -2.8482150728
atom        20.6273100000       20.1946200000       20.1166800000 C         0.0000000000         0.0000000000       -47.7905622168      -17.6202721716        3.5429349900
energy      -917.3689848797
charge 0
end
begin
comment generated by PY
lattice        40.0000000000         0.0000000000         0.0000000000
lattice         0.0000000000        40.0000000000         0.0000000000
lattice         0.0000000000         0.0000000000        40.0000000000
atom        18.6186900000       20.3437100000       20.3464400000 H         0.0000000000         0.0000000000        73.4600557318      -65.5767112991      -55.1636900932
atom        19.0181100000       19.1965900000       18.9661000000 H         0.0000000000         0.0000000000        49.6746649292       59.3415155265       93.5760852072
atom        20.6742000000       20.9940300000       21.0053900000 H         0.0000000000         0.0000000000        -4.9224074783     -100.6968495376      -91.5452317196
atom        21.6358500000       19.9821000000       19.7265400000 H         0.0000000000         0.0000000000      -118.8658546216        7.6535612620       48.0367993420
atom        19.3848800000       19.7964600000       19.8132700000 C         0.0000000000         0.0000000000        36.6711541637       55.9894659504       13.0648860545
atom        20.6195500000       20.1605500000       20.1830300000 C         0.0000000000         0.0000000000       -36.0308264188       43.2866906192       -7.9703630294
energy      -908.7272548840
charge 0
end
begin
comment generated by PY
lattice        40.0000000000         0.0000000000         0.0000000000
lattice         0.0000000000        40.0000000000         0.0000000000
lattice         0.0000000000         0.0000000000        40.0000000000
atom        18.5175900000       20.1482800000       20.3034000000 H         0.0000000000         0.0000000000        91.4911886249      -32.4249837873      -66.8109746730
atom        19.2632600000       19.2554500000       18.8456000000 H         0.0000000000         0.0000000000        12.9731441863       56.1970443199       93.6143300329
atom        20.5730400000       20.8518900000       21.1649800000 H         0.0000000000         0.0000000000        13.1505728661      -82.8534632151     -103.7206842660
atom        21.6103700000       19.8191500000       19.8399300000 H         0.0000000000         0.0000000000      -116.3551523172       42.8295552489       44.4298688289
atom        19.3987000000       19.8312200000       19.7419100000 C         0.0000000000         0.0000000000        58.2118121721       17.6824671643       37.0695792212
atom        20.6042800000       20.1625600000       20.2452800000 C         0.0000000000         0.0000000000       -59.4736162843       -1.4317919398       -4.5931035097
energy      -914.0372351730
charge 0
end
begin
comment generated by PY
lattice        40.0000000000         0.0000000000         0.0000000000
lattice         0.0000000000        40.0000000000         0.0000000000
lattice         0.0000000000         0.0000000000        40.0000000000
atom        18.4063600000       20.0256300000       20.0307300000 H         0.0000000000         0.0000000000       110.5919209162      -12.0824802910      -31.8764716730
atom        19.5255900000       19.2555400000       18.8310000000 H         0.0000000000         0.0000000000       -14.3658178824       64.2036436536       79.8654710899
atom        20.7574800000       20.6108600000       21.3245700000 H         0.0000000000         0.0000000000       -31.7256890181      -42.6637235994     -117.6206542254
atom        21.5038500000       19.7609600000       19.8005500000 H         0.0000000000         0.0000000000      -105.3215703067       51.4978745920       59.5410746830
atom        19.4275300000       19.8591500000       19.6952500000 C         0.0000000000         0.0000000000        36.7642946211      -13.1470749927       26.3585574488
atom        20.5563700000       20.1697400000       20.3058500000 C         0.0000000000         0.0000000000         4.0421339503      -47.8353585669      -16.2998010924
energy      -920.6186678877
charge 0
end
begin
comment generated by PY
lattice        40.0000000000         0.0000000000         0.0000000000
lattice         0.0000000000        40.0000000000         0.0000000000
lattice         0.0000000000         0.0000000000        40.0000000000
atom        18.3900400000       20.1168000000       19.8433900000 H         0.0000000000         0.0000000000       115.5613674238      -32.5232192398      -16.5413209776
atom        19.6363000000       19.4460100000       18.6836400000 H         0.0000000000         0.0000000000       -23.3398188842       38.0447539247       86.4298781603
atom        20.5980600000       20.5752600000       21.4063100000 H         0.0000000000         0.0000000000        -9.0755993670      -46.5779648886     -112.7541404107
atom        21.5306900000       19.9170400000       19.8431400000 H         0.0000000000         0.0000000000      -108.3890016967       24.3210018692       72.7046199349
atom        19.4380000000       19.8551300000       19.6261300000 C         0.0000000000         0.0000000000        69.8130018716       38.9151166613       44.4382810576
atom        20.5490900000       20.1402800000       20.3924800000 C         0.0000000000         0.0000000000       -44.5831569205      -22.2039772049      -74.3188955068
energy      -913.2431513902
charge 0
end
begin
comment generated by PY
lattice        40.0000000000         0.0000000000         0.0000000000
lattice         0.0000000000        40.0000000000         0.0000000000
lattice         0.0000000000         0.0000000000        40.0000000000
atom        18.4778300000       20.0856100000       19.9557300000 H         0.0000000000         0.0000000000       113.1710668770      -23.6339554311      -43.7414595225
atom        19.5927200000       19.6062700000       18.5921400000 H         0.0000000000         0.0000000000        -6.6041142938       19.2273150495       89.8527751770
atom        20.2530700000       20.5291700000       21.3579500000 H         0.0000000000         0.0000000000        31.1009876693      -49.5335085027      -93.2102321132
atom        21.5970300000       20.0017700000       20.1890500000 H         0.0000000000         0.0000000000      -125.3472012092        8.0628410935       19.6818397706
atom        19.5064100000       19.8826200000       19.5883500000 C         0.0000000000         0.0000000000         3.1545981369       24.9575812135       36.4929393830