begin
comment generated by PY
lattice        20.0000000000         0.0000000000         0.0000000000
lattice         0.0000000000        20.0000000000         0.0000000000
lattice         0.0000000000         0.0000000000        20.0000000000
atom        10.0000000000       10.9228300000       11.0376900000 H         0.0000000000         0.0000000000         0.0001614238     -104.1395671581      -42.6696563348
atom        10.0000000000        9.0771700000       11.0376900000 H         0.0000000000         0.0000000000        -0.0002306055      104.1395671581      -42.6696332742
atom        10.0000000000       10.9228300000        8.9623100000 H         0.0000000000         0.0000000000         0.0006226348     -104.1358313493       42.6648828013
atom        10.0000000000        9.0771700000        8.9623100000 H         0.0000000000         0.0000000000         0.0002306055      104.1358082887       42.6648366802
atom        10.0000000000       10.0000000000       10.4674800000 C         0.0000000000         0.0000000000        -0.0010607852       -0.0000000000     1497.6428878655
atom        10.0000000000       10.0000000000        9.5325200000 C         0.0000000000         0.0000000000         0.0002536660        0.0000230605    -1497.6333177381
energy      -796.4725529112
charge 0
end
begin
comment generated by PY
lattice        20.0000000000         0.0000000000         0.0000000000
lattice         0.0000000000        20.0000000000         0.0000000000
lattice         0.0000000000         0.0000000000        20.0000000000
atom        10.0000000000       10.9228300000       11.0477000000 H         0.0000000000         0.0000000000        -0.0000000000     -103.5724726745      -44.0433165368
atom        10.0000000000        9.0771700000       11.0477000000 H         0.0000000000         0.0000000000         0.0000230605      103.5724726745      -44.0432934763
atom        10.0000000000       10.9228300000        8.9523000000 H         0.0000000000         0.0000000000        -0.0000230605     -103.5713427077       44.0427400231
atom        10.0000000000        9.0771700000        8.9523000000 H         0.0000000000         0.0000000000         0.0000000000      103.5713427077       44.0427400231
atom        10.0000000000       10.0000000000       10.4774800000 C         0.0000000000         0.0000000000         0.0000230605        0.0000000000     1311.2184381653
atom        10.0000000000       10.0000000000        9.5225200000 C         0.0000000000         0.0000000000        -0.0000230605       -0.0000000000    -1311.2172851379
energy      -822.7886120910
charge 0
end
begin
comment generated by PY
lattice        20.0000000000         0.0000000000         0.0000000000
lattice         0.0000000000        20.0000000000         0.0000000000
lattice         0.0000000000         0.0000000000        20.0000000000
atom        10.0000000000       10.9228300000       11.0576900000 H         0.0000000000         0.0000000000         0.0001383633     -103.0728830385      -45.3563454978
atom        10.0000000000        9.0771700000       11.0576900000 H         0.0000000000         0.0000000000         0.0002075449      103.0729522201      -45.3563916189
atom        10.0000000000       10.9228300000        8.9423100000 H         0.0000000000         0.0000000000        -0.0000922422     -103.0656650870       45.3490353041
atom        10.0000000000        9.0771700000        8.9423100000 H         0.0000000000         0.0000000000         0.0000691816      103.0657112081       45.3490583646
atom        10.0000000000       10.0000000000       10.4874800000 C         0.0000000000         0.0000000000         0.0001614238       -0.0000461211     1144.1665709832
atom        10.0000000000       10.0000000000        9.5125200000 C         0.0000000000         0.0000000000        -0.0005073321       -0.0000691816    -1144.1519505958
energy      -845.5261307581
charge 0
end
begin
comment generated by PY
lattice        20.0000000000         0.0000000000         0.0000000000
lattice         0.0000000000        20.0000000000         0.0000000000
lattice         0.0000000000         0.0000000000        20.0000000000
atom        10.0000000000       10.9228300000       11.0676900000 H         0.0000000000         0.0000000000        -0.0006456953     -102.7699770536      -46.7195465964
atom        10.0000000000        9.0771700000       11.0676900000 H         0.0000000000         0.0000000000        -0.0000922422      102.7704152041      -46.7196618991
atom        10.0000000000       10.9228300000        8.9323100000 H         0.0000000000         0.0000000000         0.0009685430     -102.6216285483       46.5630577175
atom        10.0000000000        9.0771700000        8.9323100000 H         0.0000000000         0.0000000000         0.0015450567      102.6220897592       46.5632191414
atom        10.0000000000       10.0000000000       10.4974800000 C         0.0000000000         0.0000000000        -0.0047965940       -0.0004150899      994.5709046381
atom        10.0000000000       10.0000000000        9.5025200000 C         0.0000000000         0.0000000000         0.0030209318       -0.0004842715     -994.2580191226
energy      -865.0118291428
charge 0
end
begin
comment generated by PY
lattice        20.0000000000         0.0000000000         0.0000000000
lattice         0.0000000000        20.0000000000         0.0000000000
lattice         0.0000000000         0.0000000000        20.0000000000
atom        10.0000000000       10.9228300000       11.0777000000 H         0.0000000000         0.0000000000        -0.0000230605     -102.1439217179      -47.7278218790
atom        10.0000000000        9.0771700000       11.0777000000 H         0.0000000000         0.0000000000        -0.0000230605      102.1439678390      -47.7278449395
atom        10.0000000000       10.9228300000        8.9223000000 H         0.0000000000         0.0000000000         0.0000461211     -102.1507015191       47.7328260179
atom        10.0000000000        9.0771700000        8.9223000000 H         0.0000000000         0.0000000000         0.0000000000      102.1507245796       47.7328029574
atom        10.0000000000       10.0000000000       10.5074800000 C         0.0000000000         0.0000000000         0.0000230605       -0.0000461211      861.1156149041
atom        10.0000000000       10.0000000000        9.4925200000 C         0.0000000000         0.0000000000        -0.0000000000       -0.0000461211     -861.1255770608
energy      -881.6951047606
charge 0
end
begin
comment generated by PY
lattice        20.0000000000         0.0000000000         0.0000000000
lattice         0.0000000000        20.0000000000         0.0000000000
lattice         0.0000000000         0.0000000000        20.0000000000
atom        10.0000000000       10.9228300000       11.0876900000 H         0.0000000000         0.0000000000        -0.0007840586     -101.8316620214      -48.8600624142
atom        10.0000000000        9.0771700000       11.0876900000 H         0.0000000000         0.0000000000        -0.0006226348      101.8322385351      -48.8604083225
atom        10.0000000000       10.9228300000        8.9123100000 H         0.0000000000         0.0000000000         0.0007148770     -101.9417991987       48.9707069236
atom        10.0000000000        9.0771700000        8.9123100000 H         0.0000000000         0.0000000000         0.0009454825      101.9423065308       48.9710067107
atom        10.0000000000       10.0000000000       10.5174800000 C         0.0000000000         0.0000000000        -0.0041278381       -0.0005073321      740.9796631979
atom        10.0000000000       10.0000000000        9.4825200000 C         0.0000000000         0.0000000000         0.0038972326       -0.0005765137     -741.2009060955
energy      -895.7374516139
charge 0
end
begin
comment generated by PY
lattice        20.0000000000         0.0000000000         0.0000000000
lattice         0.0000000000        20.0000000000         0.0000000000
lattice         0.0000000000         0.0000000000        20.0000000000
atom        10.0000000000       10.9228300000       11.0976900000 H         0.0000000000         0.0000000000        -0.0000922422     -101.4504640589      -49.8828931146
atom        10.0000000000        9.0771700000       11.0976900000 H         0.0000000000         0.0000000000        -0.0001153027      101.4509944515      -49.8829392357
atom        10.0000000000       10.9228300000        8.9023100000 H         0.0000000000         0.0000000000         0.0002997871     -101.5649135587       49.9939757743
atom        10.0000000000        9.0771700000        8.9023100000 H         0.0000000000         0.0000000000         0.0002997871      101.5656284357       49.9941141376
atom        10.0000000000       10.0000000000       10.5274800000 C         0.0000000000         0.0000000000        -0.0016142384       -0.0006456953      634.2379944091
atom        10.0000000000       10.0000000000        9.4725200000 C         0.0000000000         0.0000000000         0.0012222090       -0.0006226348     -634.4602289103
energy      -907.5073109030
charge 0
end
begin
comment generated by PY
lattice        20.0000000000         0.0000000000         0.0000000000
lattice         0.0000000000        20.0000000000         0.0000000000
lattice         0.0000000000         0.0000000000        20.0000000000
atom        10.0000000000       10.9228300000       11.1077000000 H         0.0000000000         0.0000000000        -0.0000000000     -101.0076358954      -50.7958672202
atom        10.0000000000        9.0771700000       11.1077000000 H         0.0000000000         0.0000000000        -0.0000230605      101.0079126219      -50.7960286441
atom        10.0000000000       10.9228300000        8.8923000000 H         0.0000000000         0.0000000000        -0.0000922422     -101.0020091216       50.7879805128
atom        10.0000000000        9.0771700000        8.8923000000 H         0.0000000000         0.0000000000        -0.0001153027      101.0022858482       50.7881419367
atom        10.0000000000       10.0000000000       10.5374800000 C         0.0000000000         0.0000000000         0.0002075449       -0.0002997871      539.6793408365
atom        10.0000000000       10.0000000000        9.4625200000 C         0.0000000000         0.0000000000         0.0000230605       -0.0002767266     -539.6635674217
energy      -917.2534857985
charge 0
end
begin
comment generated by PY
lattice        20.0000000000         0.0000000000         0.0000000000
lattice         0.0000000000        20.0000000000         0.0000000000
lattice         0.0000000000         0.0000000000        20.0000000000
atom        10.0000000000       10.9228300000       11.1176900000 H         0.0000000000         0.0000000000        -0.0002306055     -100.6933244031      -51.7186616434
atom        10.0000000000        9.0771700000       11.1176900000 H         0.0000000000         0.0000000000        -0.0002075449      100.6938317351      -51.7188922489
atom        10.0000000000       10.9228300000        8.8823100000 H         0.0000000000         0.0000000000        -0.0005073321     -100.6943851883       51.7195148837
atom        10.0000000000        9.0771700000        8.8823100000 H         0.0000000000         0.0000000000        -0.0004612110      100.6948925203       51.7197685497
atom        10.0000000000       10.0000000000       10.5474800000 C         0.0000000000         0.0000000000         0.0011530274       -0.0005073321      454.5838326498
atom        10.0000000000       10.0000000000        9.4525200000 C         0.0000000000         0.0000000000         0.0002536660       -0.0005073321     -454.5855391304
energy      -925.1315142568
charge 0
end
begin
comment generated by PY
lattice        20.0000000000         0.0000000000         0.0000000000
lattice         0.0000000000        20.0000000000         0.0000000000
lattice         0.0000000000         0.0000000000        20.0000000000
atom        10.0000000000       10.9228300000       11.1276900000 H         0.0000000000         0.0000000000        -0.0000230605     -100.3765330154      -52.5789255584
atom        10.0000000000        9.0771700000       11.1276900000 H         0.0000000000         0.0000000000        -0.0000461211      100.3765099548      -52.5788794373
atom        10.0000000000       10.9228300000        8.8723100000 H         0.0000000000         0.0000000000         0.0000922422     -100.3764868943       52.5799402225
atom        10.0000000000        9.0771700000        8.8723100000 H         0.0000000000         0.0000000000         0.0000691816      100.3764638337       52.5799171619
atom        10.0000000000       10.0000000000       10.5574800000 C         0.0000000000         0.0000000000        -0.0001383633        0.0000230605      378.9046759767
atom        10.0000000000       10.0000000000        9.4425200000 C         0.0000000000         0.0000000000         0.0000461211        0.0000230605     -378.9067514260
energy      -931.3653675203
charge 0
end
begin
comment generated by PY
lattice        20.0000000000         0.0000000000         0.0000000000
lattice         0.0000000000        20.0000000000         0.0000000000
lattice         0.0000000000         0.0000000000        20.0000000000
atom        10.0000000000       10.9228300000       11.1377000000 H         0.0000000000         0.0000000000         0.0000000000     -100.0848630795      -53.4089814570
atom        10.0000000000        9.0771700000       11.1377000000 H         0.0000000000         0.0000000000        -0.0000000000      100.0847247162      -53.4089353359
atom        10.0000000000       10.9228300000        8.8623000000 H         0.0000000000         0.0000000000        -0.0000691816     -100.0851859272       53.4096271523
atom        10.0000000000        9.0771700000        8.8623000000 H         0.0000000000         0.0000000000        -0.0000922422      100.0849322612       53.4094887891
atom        10.0000000000       10.0000000000       10.5674800000 C         0.0000000000         0.0000000000         0.0002306055        0.0002075449      311.5382141582
atom        10.0000000000       10.0000000000        9.4325200000 C         0.0000000000         0.0000000000        -0.0000691816        0.0002075449     -311.5394133067
energy      -936.1339757735
charge 0
end
begin
comment generated by PY
lattice        20.0000000000         0.0000000000         0.0000000000
lattice         0.0000000000        20.0000000000         0.0000000000
lattice         0.0000000000         0.0000000000        20.0000000000
atom        10.0000000000       10.9228300000       11.1476900000 H         0.0000000000         0.0000000000         0.0000000000      -99.8015999557      -54.1925718658
atom        10.0000000000        9.0771700000       11.1476900000 H         0.0000000000         0.0000000000        -0.0000000000       99.8014154713      -54.1925026842
atom        10.0000000000       10.9228300000        8.8523100000 H         0.0000000000         0.0000000000        -0.0000000000      -99.8019689245       54.1927563502
atom        10.0000000000        9.0771700000        8.8523100000 H         0.0000000000         0.0000000000        -0.0000230605       99.8017613795       54.1926641080
atom        10.0000000000       10.0000000000       10.5774800000 C         0.0000000000         0.0000000000         0.0000000000        0.0001153027      251.7502813000
atom        10.0000000000       10.0000000000        9.4225200000 C         0.0000000000         0.0000000000         0.0000230605        0.0002767266     -251.7506272083
energy      -939.6054920894
charge 0
end
begin
comment generated by PY
lattice        20.0000000000         0.0000000000         0.0000000000
lattice         0.0000000000        20.0000000000         0.0000000000
lattice         0.0000000000         0.0000000000        20.0000000000
atom        10.0000000000       10.9228300000       11.1576900000 H         0.0000000000         0.0000000000         0.0000000000      -99.5211817943      -54.9376354553
atom        10.0000000000        9.0771700000       11.1576900000 H         0.0000000000         0.0000000000         0.0000000000       99.5211817943      -54.9376354553
atom        10.0000000000       10.9228300000        8.8423100000 H         0.0000000000         0.0000000000        -0.0000000000      -99.5218044291       54.9380736058
atom        10.0000000000        9.0771700000        8.8423100000 H         0.0000000000         0.0000000000        -0.0000000000       99.5218044291       54.9380736058
atom        10.0000000000       10.0000000000       10.5874800000 C         0.0000000000         0.0000000000         0.0000230605        0.0000000000      198.6854046286
atom        10.0000000000       10.0000000000        9.4125200000 C         0.0000000000         0.0000000000        -0.0000230605       -0.0000230605     -198.6862809294
energy      -941.9162124649
charge 0
end
begin
comment generated by PY
lattice        20.0000000000         0.0000000000         0.0000000000
lattice         0.0000000000        20.0000000000         0.0000000000
lattice         0.0000000000         0.0000000000        20.0000000000
atom        10.0000000000       10.9228300000       11.1677000000 H         0.0000000000         0.0000000000         0.0000000000      -99.2546755296      -55.6461545811
atom        10.0000000000        9.0771700000       11.1677000000 H         0.0000000000         0.0000000000         0.0000000000       99.2546755296      -55.6461545811
atom        10.0000000000       10.9228300000        8.8323000000 H         0.0000000000         0.0000000000        -0.0000000000      -99.2550214378       55.6463390655
atom        10.0000000000        9.0771700000        8.8323000000 H         0.0000000000         0.0000000000        -0.0000000000       99.2550214378       55.6463390655
atom        10.0000000000       10.0000000000       10.5974800000 C         0.0000000000         0.0000000000         0.0000000000        0.0000230605      151.6571997048
atom        10.0000000000       10.0000000000        9.4025200000 C         0.0000000000         0.0000000000        -0.0000000000       -0.0000230605     -151.6575456130
energy      -943.1950689155
charge 0
end
begin
comment generated by PY
lattice        20.0000000000         0.0000000000         0.0000000000
lattice         0.0000000000        20.0000000000         0.0000000000
lattice         0.0000000000         0.0000000000        20.0000000000
atom        10.0000000000       10.9228300000       11.1776900000 H         0.0000000000         0.0000000000        -0.0000000000      -99.0030015734      -56.3247480462
atom        10.0000000000        9.0771700000       11.1776900000 H         0.0000000000         0.0000000000        -0.0000000000       99.0030246340      -56.3247711067
atom        10.0000000000       10.9228300000        8.8223100000 H         0.0000000000         0.0000000000         0.0000000000      -99.0032552395       56.3249094700
atom        10.0000000000        9.0771700000        8.8223100000 H         0.0000000000         0.0000000000         0.0000000000       99.0032321789       56.3248864095
atom        10.0000000000       10.0000000000       10.6074800000 C         0.0000000000         0.0000000000        -0.0000000000        0.0000230605      110.0711706157
atom        10.0000000000       10.0000000000        9.3925200000 C         0.0000000000         0.0000000000         0.0000000000       -0.0000230605     -110.0714704028
energy      -943.5661673692
charge 0
end
begin
comment generated by PY
lattice        20.0000000000         0.0000000000         0.0000000000
lattice         0.0000000000        20.0000000000         0.0000000000
lattice         0.0000000000         0.0000000000        20.0000000000
atom        10.0000000000       10.9228300000       11.1876900000 H         0.0000000000         0.0000000000        -0.0000000000      -98.7471516479      -56.9657964089
atom        10.0000000000        9.0771700000       11.1876900000 H         0.0000000000         0.0000000000        -0.0000000000       98.7471516479      -56.9657733484
atom        10.0000000000       10.9228300000        8.8123100000 H         0.0000000000         0.0000000000         0.0000000000      -98.7471747084       56.9657964089
atom        10.0000000000        9.0771700000        8.8123100000 H         0.0000000000         0.0000000000         0.0000000000       98.7471516479       56.9657964089
atom        10.0000000000       10.0000000000       10.6174800000 C         0.0000000000         0.0000000000        -0.0000691816       -0.0000230605       73.4089352822
atom        10.0000000000       10.0000000000        9.3825200000 C         0.0000000000         0.0000000000         0.0000691816        0.0000230605      -73.4089814033
energy      -943.1272377752
charge 0
end
begin
comment generated by PY
lattice        20.0000000000         0.0000000000         0.0000000000
lattice         0.0000000000        20.0000000000         0.0000000000
lattice         0.0000000000         0.0000000000        20.0000000000
atom        10.0000000000       10.9228300000       11.1977000000 H         0.0000000000         0.0000000000         0.0000000000      -98.4960501851      -57.5863330178
atom        10.0000000000        9.0771700000       11.1977000000 H         0.0000000000         0.0000000000        -0.0000000000       98.4960732456      -57.5863330178
atom        10.0000000000       10.9228300000        8.8023000000 H         0.0000000000         0.0000000000         0.0000000000      -98.4962116089       57.5864252600
atom        10.0000000000        9.0771700000        8.8023000000 H         0.0000000000         0.0000000000        -0.0000000000       98.4961885484       57.5864252600
atom        10.0000000000       10.0000000000       10.6274800000 C         0.0000000000         0.0000000000        -0.0000000000        0.0000230605       41.1583383989
atom        10.0000000000       10.0000000000        9.3725200000 C         0.0000000000         0.0000000000         0.0000000000       -0.0000230605      -41.1585228833
energy      -941.9717890836
charge 0
end
begin
comment generated by PY
lattice        20.0000000000         0.0000000000         0.0000000000
lattice         0.0000000000        20.0000000000         0.0000000000
lattice         0.0000000000         0.0000000000        20.0000000000
atom        10.0000000000       10.9228300000       11.2076900000 H         0.0000000000         0.0000000000        -0.0000000000      -98.2509928332      -58.1821918844
atom        10.0000000000        9.0771700000       11.2076900000 H         0.0000000000         0.0000000000        -0.0000000000       98.2510158938      -58.1821918844
atom        10.0000000000       10.9228300000        8.7923100000 H         0.0000000000         0.0000000000         0.0000000000      -98.2510620149       58.1822149450
atom        10.0000000000        9.0771700000        8.7923100000 H         0.0000000000         0.0000000000        -0.0000000000       98.2510389543       58.1822149450
atom        10.0000000000       10.0000000000       10.6374800000 C         0.0000000000         0.0000000000        -0.0000000000        0.0000230605       12.8867613421
atom        10.0000000000       10.0000000000        9.3625200000 C         0.0000000000         0.0000000000         0.0000000000       -0.0000230605      -12.8868074632
energy      -940.1928631033
charge 0
end
begin
comment generated by PY
lattice        20.0000000000         0.0000000000         0.0000000000
lattice         0.0000000000        20.0000000000         0.0000000000
lattice         0.0000000000         0.0000000000        20.0000000000
atom        10.0000000000       10.9228300000       11.2176900000 H         0.0000000000         0.0000000000         0.0000000000      -98.0072625865      -58.7568844797
atom        10.0000000000        9.0771700000       11.2176900000 H         0.0000000000         0.0000000000        -0.0000000000       98.0072625865      -58.7568844797
atom        10.0000000000       10.9228300000        8.7823100000 H         0.0000000000         0.0000000000         0.0000000000      -98.0072856471       58.7568844797
atom        10.0000000000        9.0771700000        8.7823100000 H         0.0000000000         0.0000000000        -0.0000000000       98.0072625865       58.7568844797
atom        10.0000000000       10.0000000000       10.6474800000 C         0.0000000000         0.0000000000        -0.0000000000        0.0000230605      -11.8201835050
atom        10.0000000000       10.0000000000        9.3525200000 C         0.0000000000         0.0000000000         0.0000000000       -0.0000230605       11.8201835050
energy      -937.8588612235
charge 0
end
begin
comment generated by PY
lattice        20.0000000000         0.0000000000         0.0000000000
lattice         0.0000000000        20.0000000000         0.0000000000
lattice         0.0000000000         0.0000000000        20.0000000000
atom        10.0000000000       10.9228300000       11.2277000000 H         0.0000000000         0.0000000000        -0.0000000000      -97.7637126853      -59.3077504442
atom        10.0000000000        9.0771700000       11.2277000000 H         0.0000000000         0.0000000000        -0.0000000000       97.7637357459      -59.3077735047
atom        10.0000000000       10.9228300000        8.7723000000 H         0.0000000000         0.0000000000         0.0000000000      -97.7637126853       59.3077735047
atom        10.0000000000        9.0771700000        8.7723000000 H         0.0000000000         0.0000000000         0.0000000000       97.7636896248       59.3077504442
atom        10.0000000000       10.0000000000       10.6574800000 C         0.0000000000         0.0000000000        -0.0000000000        0.0000230605      -33.3467891057
atom        10.0000000000       10.0000000000        9.3425200000 C         0.0000000000         0.0000000000         0.0000000000       -0.0000230605       33.3467660452
energy      -935.0381624049
charge 0
end
begin
comment generated by PY
lattice        20.0000000000         0.0000000000         0.0000000000
lattice         0.0000000000        20.0000000000         0.0000000000
lattice         0.0000000000         0.0000000000        20.0000000000
atom        10.0000000000       10.9228300000       11.2376900000 H         0.0000000000         0.0000000000        -0.0000000000      -97.5219930824      -59.8312772425
atom        10.0000000000        9.0771700000       11.2376900000 H         0.0000000000         0.0000000000         0.0000000000       97.5219930824      -59.8312772425
atom        10.0000000000       10.9228300000        8.7623100000 H         0.0000000000         0.0000000000         0.0000000000      -97.5220392035       59.8313003030
atom        10.0000000000        9.0771700000        8.7623100000 H         0.0000000000         0.0000000000        -0.0000000000       97.5220161430       59.8313003030
atom        10.0000000000       10.0000000000       10.6674800000 C         0.0000000000         0.0000000000        -0.0000000000        0.0000000000      -52.0061676304
atom        10.0000000000       10.0000000000        9.3325200000 C         0.0000000000         0.0000000000         0.0000000000       -0.0000230605       52.0061215093
energy      -931.7996658965
charge 0
end
begin
comment generated by PY
lattice        20.0000000000         0.0000000000         0.0000000000
lattice         0.0000000000        20.0000000000         0.0000000000
lattice         0.0000000000         0.0000000000        20.0000000000
atom        10.0000000000       10.9228300000       11.2476900000 H         0.0000000000         0.0000000000        -0.0000000000      -97.2809234324      -60.3316912226
atom        10.0000000000        9.0771700000       11.2476900000 H         0.0000000000         0.0000000000         0.0000000000       97.2809234324      -60.3316912226
atom        10.0000000000       10.9228300000        8.7523100000 H         0.0000000000         0.0000000000         0.0000000000      -97.2809926141       60.3317373437
atom        10.0000000000        9.0771700000        8.7523100000 H         0.0000000000         0.0000000000        -0.0000000000       97.2809926141       60.3317373437
atom        10.0000000000       10.0000000000       10.6774800000 C         0.0000000000         0.0000000000        -0.0000000000        0.0000000000      -68.1045533644
atom        10.0000000000       10.0000000000        9.3225200000 C         0.0000000000         0.0000000000         0.0000000000       -0.0000000000       68.1044611222
energy      -928.1909494248
charge 0
end
begin
comment generated by PY
lattice        20.0000000000         0.0000000000         0.0000000000
lattice         0.0000000000        20.0000000000         0.0000000000
lattice         0.0000000000         0.0000000000        20.0000000000
atom        10.0000000000       10.9228300000       11.2577000000 H         0.0000000000         0.0000000000        -0.0000000000      -97.0356819519      -60.8108212870
atom        10.0000000000        9.0771700000       11.2577000000 H         0.0000000000         0.0000000000         0.0000000000       97.0357050125      -60.8108212870
atom        10.0000000000       10.9228300000        8.7423000000 H         0.0000000000         0.0000000000         0.0000000000      -97.0357741941       60.8108674081
atom        10.0000000000        9.0771700000        8.7423000000 H         0.0000000000         0.0000000000         0.0000000000       97.0357741941       60.8108674081
atom        10.0000000000       10.0000000000       10.6874800000 C         0.0000000000         0.0000000000        -0.0000000000        0.0000000000      -81.8948874537