begin
comment generated by PY
lattice        20.0000000000         0.0000000000         0.0000000000
lattice         0.0000000000        20.0000000000         0.0000000000
lattice         0.0000000000         0.0000000000        20.0000000000
atom        10.0000000000       10.9299900000       11.2407800000 H         0.0000000000         0.0000000000         0.0000000000     -100.1695227138      -61.1593959037
atom        10.0000000000        9.0700100000       11.2407800000 H         0.0000000000         0.0000000000         0.0000000000      100.1695457743      -61.1593959037
atom        10.0000000000       10.9299900000        8.7592200000 H         0.0000000000         0.0000000000         0.0000000000     -100.1695688349       61.1594189643
atom        10.0000000000        9.0700100000        8.7592200000 H         0.0000000000         0.0000000000        -0.0000000000      100.1695688349       61.1594189643
atom        10.0000000000       10.0000000000       10.6666900000 C         0.0000000000         0.0000000000        -0.0000000000        0.0000230605      -47.9562589573
atom        10.0000000000       10.0000000000        9.3333100000 C         0.0000000000         0.0000000000         0.0000000000       -0.0000000000       47.9562128362
energy      -928.2995539348
charge 0
end
begin
comment generated by PY
lattice        20.0000000000         0.0000000000         0.0000000000
lattice         0.0000000000        20.0000000000         0.0000000000
lattice         0.0000000000         0.0000000000        20.0000000000
atom        10.0000000000       10.9299900000       11.2407800000 H         0.0000000000         0.0000000000        -5.5681974122     -100.1309592098      -61.0721760150
atom        10.0000000000        9.0700100000       11.2407800000 H         0.0000000000         0.0000000000         5.5681974122      100.1309822704      -61.0722221361
atom         9.8786100000       10.9220400000        8.7592200000 H         0.0000000000         0.0000000000        18.5871758254      -98.5428418480       61.0702225618
atom        10.1213900000        9.0779600000        8.7592200000 H         0.0000000000         0.0000000000       -18.5871758254       98.5427957269       61.0701764407
atom        10.0000000000       10.0000000000       10.6666900000 C         0.0000000000         0.0000000000         0.0000000000        0.0000691816      -47.4865007173
atom        10.0000000000       10.0000000000        9.3333100000 C         0.0000000000         0.0000000000         0.0000000000       -0.0000461211       47.4905229264
energy      -927.6200370800
charge 0
end
begin
comment generated by PY
lattice        20.0000000000         0.0000000000         0.0000000000
lattice         0.0000000000        20.0000000000         0.0000000000
lattice         0.0000000000         0.0000000000        20.0000000000
atom        10.0000000000       10.9299900000       11.2407800000 H         0.0000000000         0.0000000000       -11.1212931285     -100.0067970804      -60.8016156159
atom        10.0000000000        9.0700100000       11.2407800000 H         0.0000000000         0.0000000000        11.1213392496      100.0069354437      -60.8017078581
atom         9.7593000000       10.8983000000        8.7592200000 H         0.0000000000         0.0000000000        36.6291395745      -93.7162242971       60.8004089225
atom        10.2407000000        9.1017000000        8.7592200000 H         0.0000000000         0.0000000000       -36.6291165140       93.7161781760       60.8003166803
atom        10.0000000000       10.0000000000       10.6666900000 C         0.0000000000         0.0000000000        -0.0000230605        0.0000000000      -46.0311742958
atom        10.0000000000       10.0000000000        9.3333100000 C         0.0000000000         0.0000000000        -0.0000230605       -0.0000922422       46.0336952276
energy      -925.5888886774
charge 0
end
begin
comment generated by PY
lattice        20.0000000000         0.0000000000         0.0000000000
lattice         0.0000000000        20.0000000000         0.0000000000
lattice         0.0000000000         0.0000000000        20.0000000000
atom        10.0000000000       10.9299900000       11.2407800000 H         0.0000000000         0.0000000000       -16.6432949623      -99.8092898730      -60.3632740958
atom        10.0000000000        9.0700100000       11.2407800000 H         0.0000000000         0.0000000000        16.6432949623       99.8093821151      -60.3633432775
atom         9.6441100000       10.8592000000        8.7592200000 H         0.0000000000         0.0000000000        53.5717027760      -85.8377535722       60.3630126720
atom        10.3558900000        9.1408000000        8.7592200000 H         0.0000000000         0.0000000000       -53.5716566549       85.8377305117       60.3629434903
atom        10.0000000000       10.0000000000       10.6666900000 C         0.0000000000         0.0000000000        -0.0000461211        0.0000230605      -43.6290518061
atom        10.0000000000       10.0000000000        9.3333100000 C         0.0000000000         0.0000000000        -0.0000000000       -0.0000691816       43.6297130171
energy      -922.2074420060
charge 0
end
begin
comment generated by PY
lattice        20.0000000000         0.0000000000         0.0000000000
lattice         0.0000000000        20.0000000000         0.0000000000
lattice         0.0000000000         0.0000000000        20.0000000000
atom        10.0000000000       10.9299900000       11.2407800000 H         0.0000000000         0.0000000000       -22.1184938370      -99.5496659456      -59.7573303101
atom        10.0000000000        9.0700100000       11.2407800000 H         0.0000000000         0.0000000000        22.1184938370       99.5499426722      -59.7574686734
atom         9.5350000000       10.8054000000        8.7592200000 H         0.0000000000         0.0000000000        68.9267528792      -75.1462821992       59.7548848276
atom        10.4650000000        9.1946000000        8.7592200000 H         0.0000000000         0.0000000000       -68.9267990003       75.1464436230       59.7548848276
atom        10.0000000000       10.0000000000       10.6666900000 C         0.0000000000         0.0000000000         0.0000230605       -0.0001614238      -40.2154790165
atom        10.0000000000       10.0000000000        9.3333100000 C         0.0000000000         0.0000000000         0.0000230605       -0.0002536660       40.2206083447
energy      -917.4855559151
charge 0
end
begin
comment generated by PY
lattice        20.0000000000         0.0000000000         0.0000000000
lattice         0.0000000000        20.0000000000         0.0000000000
lattice         0.0000000000         0.0000000000        20.0000000000
atom        10.0000000000       10.9299900000       11.2407800000 H         0.0000000000         0.0000000000       -27.5269780768      -99.2127745183      -58.9884987099
atom        10.0000000000        9.0700100000       11.2407800000 H         0.0000000000         0.0000000000        27.5269550162       99.2127975788      -58.9885217704
atom         9.4338600000       10.7378100000        8.7592200000 H         0.0000000000         0.0000000000        82.2282399159      -61.9510891216       58.9883452567
atom        10.5661400000        9.2621900000        8.7592200000 H         0.0000000000         0.0000000000       -82.2283090976       61.9511352427       58.9883221962
atom        10.0000000000       10.0000000000       10.6666900000 C         0.0000000000         0.0000000000         0.0000691816       -0.0000230605      -35.7971665464
atom        10.0000000000       10.0000000000        9.3333100000 C         0.0000000000         0.0000000000         0.0000230605       -0.0000461211       35.7975195738
energy      -911.4420882495
charge 0
end
begin
comment generated by PY
lattice        20.0000000000         0.0000000000         0.0000000000
lattice         0.0000000000        20.0000000000         0.0000000000
lattice         0.0000000000         0.0000000000        20.0000000000
atom        10.0000000000       10.9299900000       11.2407800000 H         0.0000000000         0.0000000000       -32.8478777040      -98.8326906845      -58.0778206145
atom        10.0000000000        9.0700100000       11.2407800000 H         0.0000000000         0.0000000000        32.8478777040       98.8326676240      -58.0777975539
atom         9.3424000000       10.6576000000        8.7592200000 H         0.0000000000         0.0000000000        93.1057394358      -46.6546123865       58.0778057375
atom        10.6576000000        9.3424000000        8.7592200000 H         0.0000000000         0.0000000000       -93.1057394358       46.6546123865       58.0778057375
atom        10.0000000000       10.0000000000       10.6666900000 C         0.0000000000         0.0000000000         0.0000000000       -0.0000000000      -30.3149789672
atom        10.0000000000       10.0000000000        9.3333100000 C         0.0000000000         0.0000000000         0.0000000000        0.0000000000       30.3149856606
energy      -904.0910515122
charge 0
end
begin
comment generated by PY
lattice        20.0000000000         0.0000000000         0.0000000000
lattice         0.0000000000        20.0000000000         0.0000000000
lattice         0.0000000000         0.0000000000        20.0000000000
atom        10.0000000000       10.9299900000       11.2407800000 H         0.0000000000         0.0000000000       -38.0538535528      -98.4038945770      -57.0221774338
atom        10.0000000000        9.0700100000       11.2407800000 H         0.0000000000         0.0000000000        38.0538535528       98.4038945770      -57.0221774338
atom         9.2621900000       10.5661400000        8.7592200000 H         0.0000000000         0.0000000000       101.2303041165      -29.7083229638       57.0218164357
atom        10.7378100000        9.4338600000        8.7592200000 H         0.0000000000         0.0000000000      -101.2303041165       29.7083229638       57.0218164357
atom        10.0000000000       10.0000000000       10.6666900000 C         0.0000000000         0.0000000000        -0.0000000000        0.0000000000      -23.6618228810
atom        10.0000000000       10.0000000000        9.3333100000 C         0.0000000000         0.0000000000        -0.0000000000        0.0000000000       23.6625448772
energy      -895.4570756541
charge 0
end
begin
comment generated by PY
lattice        20.0000000000         0.0000000000         0.0000000000
lattice         0.0000000000        20.0000000000         0.0000000000
lattice         0.0000000000         0.0000000000        20.0000000000
atom        10.0000000000       10.9299900000       11.2407800000 H         0.0000000000         0.0000000000       -43.1173254226      -97.9377466493      -55.8488902880
atom        10.0000000000        9.0700100000       11.2407800000 H         0.0000000000         0.0000000000        43.1173254226       97.9377466493      -55.8488672275
atom         9.1946000000       10.4650000000        8.7592200000 H         0.0000000000         0.0000000000       106.3683256587      -11.6243544759       55.8461911395
atom        10.8054000000        9.5350000000        8.7592200000 H         0.0000000000         0.0000000000      -106.3683256587       11.6243544759       55.8461911395
atom        10.0000000000       10.0000000000       10.6666900000 C         0.0000000000         0.0000000000         0.0000000000       -0.0000000000      -15.8094564487
atom        10.0000000000       10.0000000000        9.3333100000 C         0.0000000000         0.0000000000         0.0000000000       -0.0000000000       15.8148547457
energy      -885.5706334132
charge 0
end
begin
comment generated by PY
lattice        20.0000000000         0.0000000000         0.0000000000
lattice         0.0000000000        20.0000000000         0.0000000000
lattice         0.0000000000         0.0000000000        20.0000000000
atom        10.0000000000       10.9299900000       11.2407800000 H         0.0000000000         0.0000000000       -48.0034602768      -97.4675463328      -54.5906605244
atom        10.0000000000        9.0700100000       11.2407800000 H         0.0000000000         0.0000000000        48.0034602768       97.4675463328      -54.5906605244
atom         9.1408000000       10.3558900000        8.7592200000 H         0.0000000000         0.0000000000       108.4144647292        7.0509621280       54.5908833721
atom        10.8592000000        9.6441100000        8.7592200000 H         0.0000000000         0.0000000000      -108.4144647292       -7.0509851885       54.5908833721
atom        10.0000000000       10.0000000000       10.6666900000 C         0.0000000000         0.0000000000        -0.0000000000        0.0000000000       -6.6846930356
atom        10.0000000000       10.0000000000        9.3333100000 C         0.0000000000         0.0000000000         0.0000000000        0.0000000000        6.6842473403
energy      -874.4758998876
charge 0
end
begin
comment generated by PY
lattice        20.0000000000         0.0000000000         0.0000000000
lattice         0.0000000000        20.0000000000         0.0000000000
lattice         0.0000000000         0.0000000000        20.0000000000
atom        10.0000000000       10.9299900000       11.2407800000 H         0.0000000000         0.0000000000       -52.6732862408      -96.9992432490      -53.2697656969
atom        10.0000000000        9.0700100000       11.2407800000 H         0.0000000000         0.0000000000        52.6732862408       96.9992201885      -53.2697656969
atom         9.1017000000       10.2407000000        8.7592200000 H         0.0000000000         0.0000000000       107.3225502760       25.7700356333       53.2692124566
atom        10.8983000000        9.7593000000        8.7592200000 H         0.0000000000         0.0000000000      -107.3225272154      -25.7700356333       53.2692124566
atom        10.0000000000       10.0000000000       10.6666900000 C         0.0000000000         0.0000000000         0.0000000000       -0.0000000000        3.8261177094
atom        10.0000000000       10.0000000000        9.3333100000 C         0.0000000000         0.0000000000        -0.0000000000        0.0000000000       -3.8248342894
energy      -862.2157082298
charge 0
end
begin
comment generated by PY
lattice        20.0000000000         0.0000000000         0.0000000000
lattice         0.0000000000        20.0000000000         0.0000000000
lattice         0.0000000000         0.0000000000        20.0000000000
atom        10.0000000000       10.9299900000       11.2407800000 H         0.0000000000         0.0000000000       -55.1041901633      -96.5569587310      -51.8895581940
atom        10.0000000000        9.0700100000       11.2407800000 H         0.0000000000         0.0000000000        55.1041901633       96.5569587310      -51.8895581940
atom         9.0779600000       10.1213900000        8.7592200000 H         0.0000000000         0.0000000000       102.9196001593       42.0317611675       51.8885502233
atom        10.9220400000        9.8786100000        8.7592200000 H         0.0000000000         0.0000000000      -102.9196001593      -42.0317611675       51.8885502233
atom        10.0000000000       10.0000000000       10.6666900000 C         0.0000000000         0.0000000000        -0.0000000000        0.0000000000       16.2655215123
atom        10.0000000000       10.0000000000        9.3333100000 C         0.0000000000         0.0000000000        -0.0000000000        0.0000000000      -16.2635055709
energy      -848.6602348051
charge 0
end
begin
comment generated by PY
lattice        20.0000000000         0.0000000000         0.0000000000
lattice         0.0000000000        20.0000000000         0.0000000000
lattice         0.0000000000         0.0000000000        20.0000000000
atom        10.0000000000       10.9299900000       11.2407800000 H         0.0000000000         0.0000000000        -0.0000000000      -96.4063817489      -50.7351204811
atom        10.0000000000        9.0700100000       11.2407800000 H         0.0000000000         0.0000000000         0.0000000000       96.4063817489      -50.7351204811
atom         9.0700100000       10.0000000000        8.7592200000 H         0.0000000000         0.0000000000        96.4075578369        0.0000000000       50.7359045397
atom        10.9299900000       10.0000000000        8.7592200000 H         0.0000000000         0.0000000000       -96.4075578369       -0.0000000000       50.7359045397
atom        10.0000000000       10.0000000000       10.6666900000 C         0.0000000000         0.0000000000        -0.0000000000       -0.0000000000       28.2880453376
atom        10.0000000000       10.0000000000        9.3333100000 C         0.0000000000         0.0000000000         0.0000000000        0.0000000000      -28.2895903943
energy      -837.5266675134
charge 0
end
begin
comment generated by PY
lattice        20.0000000000         0.0000000000         0.0000000000
lattice         0.0000000000        20.0000000000         0.0000000000
lattice         0.0000000000         0.0000000000        20.0000000000
atom        10.0000000000       10.9299900000       11.2407800000 H         0.0000000000         0.0000000000        55.1049281008      -96.5501789299      -51.8843234496
atom        10.0000000000        9.0700100000       11.2407800000 H         0.0000000000         0.0000000000       -55.1049281008       96.5501789299      -51.8843234496
atom         9.0779600000        9.8786100000        8.7592200000 H         0.0000000000         0.0000000000       102.9121746629      -42.0330986793       51.8823699964
atom        10.9220400000       10.1213900000        8.7592200000 H         0.0000000000         0.0000000000      -102.9121977234       42.0330986793       51.8823699964
atom        10.0000000000       10.0000000000       10.6666900000 C         0.0000000000         0.0000000000         0.0000230605        0.0000000000       16.2720015263
atom        10.0000000000       10.0000000000        9.3333100000 C         0.0000000000         0.0000000000        -0.0000000000        0.0000230605      -16.2680715595
energy      -848.6602631696
charge 0
end
begin
comment generated by PY
lattice        20.0000000000         0.0000000000         0.0000000000
lattice         0.0000000000        20.0000000000         0.0000000000
lattice         0.0000000000         0.0000000000        20.0000000000
atom        10.0000000000       10.9299900000       11.2407800000 H         0.0000000000         0.0000000000        52.6722254556      -97.0061152923      -53.2737782322
atom        10.0000000000        9.0700100000       11.2407800000 H         0.0000000000         0.0000000000       -52.6722485162       97.0061383529      -53.2737782322
atom         9.1017000000        9.7593000000        8.7592200000 H         0.0000000000         0.0000000000       107.3284768368      -25.7673836703       53.2733633552
atom        10.8983000000       10.2407000000        8.7592200000 H         0.0000000000         0.0000000000      -107.3284998974       25.7673836703       53.2733402947
atom        10.0000000000       10.0000000000       10.6666900000 C         0.0000000000         0.0000000000         0.0000230605       -0.0000230605        3.8177928516
atom        10.0000000000       10.0000000000        9.3333100000 C         0.0000000000         0.0000000000         0.0000000000       -0.0000000000       -3.8167169765
energy      -862.2156245200
charge 0
end
begin
comment generated by PY
lattice        20.0000000000         0.0000000000         0.0000000000
lattice         0.0000000000        20.0000000000         0.0000000000
lattice         0.0000000000         0.0000000000        20.0000000000
atom        10.0000000000       10.9299900000       11.2407800000 H         0.0000000000         0.0000000000        48.0041290327      -97.4664394265      -54.5902223740
atom        10.0000000000        9.0700100000       11.2407800000 H         0.0000000000         0.0000000000       -48.0041290327       97.4664394265      -54.5901993135
atom         9.1408000000        9.6441100000        8.7592200000 H         0.0000000000         0.0000000000       108.4138190338       -7.0519537315       54.5904913428
atom        10.8592000000       10.3558900000        8.7592200000 H         0.0000000000         0.0000000000      -108.4138190338        7.0519767921       54.5904913428
atom        10.0000000000       10.0000000000       10.6666900000 C         0.0000000000         0.0000000000         0.0000000000       -0.0000000000       -6.6843010063
atom        10.0000000000       10.0000000000        9.3333100000 C         0.0000000000         0.0000000000        -0.0000000000        0.0000000000        6.6837630688
energy      -874.4758878961
charge 0
end
begin
comment generated by PY
lattice        20.0000000000         0.0000000000         0.0000000000
lattice         0.0000000000        20.0000000000         0.0000000000
lattice         0.0000000000         0.0000000000        20.0000000000
atom        10.0000000000       10.9299900000       11.2407800000 H         0.0000000000         0.0000000000        43.1174637859      -97.9459331438      -55.8538021847
atom        10.0000000000        9.0700100000       11.2407800000 H         0.0000000000         0.0000000000       -43.1174637859       97.9459100833      -55.8537791242
atom         9.1946000000        9.5350000000        8.7592200000 H         0.0000000000         0.0000000000       106.3753130047       11.6282517085       55.8511491573
atom        10.8054000000       10.4650000000        8.7592200000 H         0.0000000000         0.0000000000      -106.3753130047      -11.6282517085       55.8511491573
atom        10.0000000000       10.0000000000       10.6666900000 C         0.0000000000         0.0000000000        -0.0000000000       -0.0000000000      -15.8234542013
atom        10.0000000000       10.0000000000        9.3333100000 C         0.0000000000         0.0000000000        -0.0000000000       -0.0000000000       15.8287602561
energy      -885.5707201209
charge 0
end
begin
comment generated by PY
lattice        20.0000000000         0.0000000000         0.0000000000
lattice         0.0000000000        20.0000000000         0.0000000000
lattice         0.0000000000         0.0000000000        20.0000000000
atom        10.0000000000       10.9299900000       11.2407800000 H         0.0000000000         0.0000000000        38.0545453693      -98.4047247567      -57.0241145198
atom        10.0000000000        9.0700100000       11.2407800000 H         0.0000000000         0.0000000000       -38.0545684298       98.4047247567      -57.0240914592
atom         9.2621900000        9.4338600000        8.7592200000 H         0.0000000000         0.0000000000       101.2314110228       29.7082537821       57.0235690373
atom        10.7378100000       10.5661400000        8.7592200000 H         0.0000000000         0.0000000000      -101.2314110228      -29.7082537821       57.0235690373
atom        10.0000000000       10.0000000000       10.6666900000 C         0.0000000000         0.0000000000        -0.0000000000       -0.0000000000      -23.6669653832
atom        10.0000000000       10.0000000000        9.3333100000 C         0.0000000000         0.0000000000         0.0000230605       -0.0000000000       23.6680332876
energy      -895.4570212312
charge 0
end
begin
comment generated by PY
lattice        20.0000000000         0.0000000000         0.0000000000
lattice         0.0000000000        20.0000000000         0.0000000000
lattice         0.0000000000         0.0000000000        20.0000000000
atom        10.0000000000       10.9299900000       11.2407800000 H         0.0000000000         0.0000000000        32.8485695204      -98.8298311766      -58.0768981926
atom        10.0000000000        9.0700100000       11.2407800000 H         0.0000000000         0.0000000000       -32.8485695204       98.8298081160      -58.0768981926
atom         9.3424000000        9.3424000000        8.7592200000 H         0.0000000000         0.0000000000        93.1040790764       46.6519834840       58.0767910734
atom        10.6576000000       10.6576000000        8.7592200000 H         0.0000000000         0.0000000000       -93.1041251975      -46.6519834840       58.0768141339
atom        10.0000000000       10.0000000000       10.6666900000 C         0.0000000000         0.0000000000         0.0000230605       -0.0000000000      -30.3136183949
atom        10.0000000000       10.0000000000        9.3333100000 C         0.0000000000         0.0000000000        -0.0000000000        0.0000230605       30.3138095727
energy      -904.0910067747
charge 0
end
begin
comment generated by PY
lattice        20.0000000000         0.0000000000         0.0000000000
lattice         0.0000000000        20.0000000000         0.0000000000
lattice         0.0000000000         0.0000000000        20.0000000000
atom        10.0000000000       10.9299900000       11.2407800000 H         0.0000000000         0.0000000000        27.5272548034      -99.2117367936      -58.9874379247
atom        10.0000000000        9.0700100000       11.2407800000 H         0.0000000000         0.0000000000       -27.5272548034       99.2117598542      -58.9874379247
atom         9.4338600000        9.2621900000        8.7592200000 H         0.0000000000         0.0000000000        82.2278017655       61.9500283364       58.9871922293
atom        10.5661400000       10.7378100000        8.7592200000 H         0.0000000000         0.0000000000       -82.2278017655      -61.9500283364       58.9871922293
atom        10.0000000000       10.0000000000       10.6666900000 C         0.0000000000         0.0000000000        -0.0000230605        0.0000230605      -35.7979736656
atom        10.0000000000       10.0000000000        9.3333100000 C         0.0000000000         0.0000000000         0.0000230605       -0.0000461211       35.7984650563
energy      -911.4420748743
charge 0
end
begin
comment generated by PY
lattice        20.0000000000         0.0000000000         0.0000000000
lattice         0.0000000000        20.0000000000         0.0000000000
lattice         0.0000000000         0.0000000000        20.0000000000
atom        10.0000000000       10.9299900000       11.2407800000 H         0.0000000000         0.0000000000        22.1169949014      -99.5095867131      -59.7378902681
atom        10.0000000000        9.0700100000       11.2407800000 H         0.0000000000         0.0000000000       -22.1168334776       99.5095175315      -59.7379133286
atom         9.5350000000        9.1946000000        8.7592200000 H         0.0000000000         0.0000000000        68.9049145402       75.1118989221       59.7348452114
atom        10.4650000000       10.8054000000        8.7592200000 H         0.0000000000         0.0000000000       -68.9050990246      -75.1118758616       59.7348682719
atom        10.0000000000       10.0000000000       10.6666900000 C         0.0000000000         0.0000000000         0.0003920293       -0.0000461211      -40.2003282364
atom        10.0000000000       10.0000000000        9.3333100000 C         0.0000000000         0.0000000000        -0.0003459082        0.0000922422       40.2065183499
energy      -917.4797859354
charge 0
end
begin
comment generated by PY
lattice        20.0000000000         0.0000000000         0.0000000000
lattice         0.0000000000        20.0000000000         0.0000000000
lattice         0.0000000000         0.0000000000        20.0000000000
atom        10.0000000000       10.9299900000       11.2407800000 H         0.0000000000         0.0000000000        16.6433641439      -99.8150550100      -60.3631587931
atom        10.0000000000        9.0700100000       11.2407800000 H         0.0000000000         0.0000000000       -16.6433872045       99.8151011311      -60.3632049142
atom         9.6441100000        9.1408000000        8.7592200000 H         0.0000000000         0.0000000000        53.5740088308       85.8431266799       60.3629665509
atom        10.3558900000       10.8592000000        8.7592200000 H         0.0000000000         0.0000000000       -53.5740088308      -85.8431497405       60.3630126720
atom        10.0000000000       10.0000000000       10.6666900000 C         0.0000000000         0.0000000000        -0.0000691816        0.0000230605      -43.6068214378
atom        10.0000000000       10.0000000000        9.3333100000 C         0.0000000000         0.0000000000         0.0000922422       -0.0000230605       43.6072059222
energy      -922.2074346266
charge 0
end
begin
comment generated by PY
lattice        20.0000000000         0.0000000000         0.0000000000
lattice         0.0000000000        20.0000000000         0.0000000000
lattice         0.0000000000         0.0000000000        20.0000000000
atom        10.0000000000       10.9299900000       11.2407800000 H         0.0000000000         0.0000000000        11.1213161891     -100.0067509593      -60.8010160417
atom        10.0000000000        9.0700100000       11.2407800000 H         0.0000000000         0.0000000000       -11.1213161891      100.0067740199      -60.8010621628
atom         9.7593000000        9.1017000000        8.7592200000 H         0.0000000000         0.0000000000        36.6291165140       93.7161320549       60.7997862877
atom        10.2407000000       10.8983000000        8.7592200000 H         0.0000000000         0.0000000000       -36.6291395745      -93.7161781760       60.7998324088
atom        10.0000000000       10.0000000000       10.6666900000 C         0.0000000000         0.0000000000         0.0000230605        0.0000230605      -46.0279919402