begin
comment generated by PY
lattice        40.0000000000         0.0000000000         0.0000000000
lattice         0.0000000000        40.0000000000         0.0000000000
lattice         0.0000000000         0.0000000000        40.0000000000
atom        20.3766700000       20.9202200000       21.0842400000 H         0.0000000000         0.0000000000       -45.5131846094     -105.0066201955      -17.7745628334
atom        19.1505300000       19.6213000000       21.1878500000 H         0.0000000000         0.0000000000        89.0056622414       27.4246386339      -31.5645656712
atom        20.9334700000       19.3062200000       20.9514100000 H         0.0000000000         0.0000000000      -106.5909058224       63.2009825725      -14.8615770618
atom        20.0593000000       19.0305400000       18.9480100000 H         0.0000000000         0.0000000000       -15.4638916495      114.5393780844       15.2247501341
atom        19.0134600000       20.3698200000       18.8521300000 H         0.0000000000         0.0000000000        87.6208921789      -17.6846575249       40.0910551664
atom        20.8032100000       20.6113500000       18.8806500000 H         0.0000000000         0.0000000000      -101.4038512799      -54.7878012471       33.1369898578
atom        20.0436000000       19.9372900000       20.7539500000 C         0.0000000000         0.0000000000        52.0029738190       44.6552527359      -23.2167966573
atom        19.9283700000       20.0744100000       19.2540200000 C         0.0000000000         0.0000000000        40.3375491332      -72.3347238636       -1.0291327078
energy     -1174.9458849127
charge 0
end
begin
comment generated by PY
lattice        40.0000000000         0.0000000000         0.0000000000
lattice         0.0000000000        40.0000000000         0.0000000000
lattice         0.0000000000         0.0000000000        40.0000000000
atom        20.4792800000       20.7877100000       21.3670100000 H         0.0000000000         0.0000000000       -29.2601767038      -90.7211846382      -78.2310136122
atom        19.2704100000       19.6853700000       21.3187700000 H         0.0000000000         0.0000000000        68.1408108121       23.0035101985      -59.9451649494
atom        20.7220700000       19.0184600000       20.9640700000 H         0.0000000000         0.0000000000       -56.2380357994      109.7040165616      -18.4133366638
atom        20.0357300000       19.1590400000       18.6241700000 H         0.0000000000         0.0000000000       -19.9424578973       96.7988144318       73.4673194183
atom        18.9451100000       20.4877000000       19.0067900000 H         0.0000000000         0.0000000000        84.8402360606      -47.3238024544       21.2387468034
atom        20.5467500000       20.8241800000       18.7671600000 H         0.0000000000         0.0000000000       -66.3676857771      -85.5281631865       52.7826132342
atom        20.1176200000       19.9362600000       20.7654500000 C         0.0000000000         0.0000000000         1.5165288296      -46.9766197509       32.0630944978
atom        19.8824300000       20.0668700000       19.2305600000 C         0.0000000000         0.0000000000        17.2982428693       41.0455346801      -22.9609365192
energy     -1164.8203839615
charge 0
end
begin
comment generated by PY
lattice        40.0000000000         0.0000000000         0.0000000000
lattice         0.0000000000        40.0000000000         0.0000000000
lattice         0.0000000000         0.0000000000        40.0000000000
atom        20.8212300000       20.7106200000       21.1769600000 H         0.0000000000         0.0000000000       -83.8456273664      -91.8816452555      -38.9867493033
atom        19.1986700000       19.7949800000       21.1900200000 H         0.0000000000         0.0000000000       105.0123528895        7.9668325385      -21.2469942162
atom        20.7976700000       18.9502800000       21.0123400000 H         0.0000000000         0.0000000000       -75.6858294866       99.5627852308      -28.9045291920
atom        19.8711500000       19.2366700000       18.5434300000 H         0.0000000000         0.0000000000         0.6778043044       98.5391936955       77.0689263915
atom        18.8011900000       20.4081500000       19.2744200000 H         0.0000000000         0.0000000000       105.9171108641      -22.3592962637      -18.1825556606
atom        20.4356000000       20.9661400000       18.7930900000 H         0.0000000000         0.0000000000       -68.8200791740      -96.0061677537       43.7898419254
atom        20.1736200000       19.8671700000       20.7855500000 C         0.0000000000         0.0000000000        28.6638551272        0.1885430123      -24.5519923260
atom        19.8325800000       20.1272700000       19.2152600000 C         0.0000000000         0.0000000000       -11.9588159979        3.9910714893       11.0135642308
energy     -1143.5391089435
charge 0
end
begin
comment generated by PY
lattice        40.0000000000         0.0000000000         0.0000000000
lattice         0.0000000000        40.0000000000         0.0000000000
lattice         0.0000000000         0.0000000000        40.0000000000
atom        20.8880300000       20.6897800000       21.0272000000 H         0.0000000000         0.0000000000       -64.2330591536     -110.5900284221      -29.0657094433
atom        19.4279800000       19.9042400000       21.4691600000 H         0.0000000000         0.0000000000        82.2404756518      -18.7863344312      -86.4057165555
atom        20.7423000000       18.7993400000       20.8430100000 H         0.0000000000         0.0000000000       -57.3718174841      119.3258434190      -18.2687561990
atom        19.8993300000       19.2685000000       18.6432500000 H         0.0000000000         0.0000000000       -16.7664871103      106.3368028408       65.7597205897
atom        18.7100600000       20.4640300000       19.2103400000 H         0.0000000000         0.0000000000       116.0476018681      -29.9415671805       11.0253569870
atom        20.3760000000       21.0091000000       18.8117000000 H         0.0000000000         0.0000000000       -67.4451550379      -94.9728859471       57.0241397729
atom        20.2227700000       19.8068300000       20.7034200000 C         0.0000000000         0.0000000000        12.4529211050       54.7981386462       42.9581279256
atom        19.7735900000       20.1819400000       19.2961900000 C         0.0000000000         0.0000000000        -4.9306851558      -26.1750600035      -43.0265826847
energy     -1139.9536360560
charge 0
end
begin
comment generated by PY
lattice        40.0000000000         0.0000000000         0.0000000000
lattice         0.0000000000        40.0000000000         0.0000000000
lattice         0.0000000000         0.0000000000        40.0000000000
atom        21.2445500000       20.3503100000       21.0386500000 H         0.0000000000         0.0000000000      -118.9975511529      -49.1334340186      -43.8380475892
atom        19.5679700000       19.7089600000       21.5513800000 H         0.0000000000         0.0000000000        77.5446174466       19.6652072539      -98.7294957514
atom        20.6699800000       18.7634000000       20.5083400000 H         0.0000000000         0.0000000000       -43.8235490531      117.6555571567       30.8492019215
atom        19.8594800000       19.3655900000       18.5626800000 H         0.0000000000         0.0000000000       -24.1718710769       92.5145197905       88.8111571332
atom        18.6523800000       20.5751800000       19.2647700000 H         0.0000000000         0.0000000000       116.4848629064      -47.3264471192       10.8395401160
atom        20.3598000000       21.0380900000       18.9508200000 H         0.0000000000         0.0000000000       -80.2693209634      -93.9215283730       33.6964639450
atom        20.2700300000       19.8328600000       20.6799500000 C         0.0000000000         0.0000000000        40.5658248672      -87.4687630452       23.1062010372
atom        19.7004800000       20.1836700000       19.3303200000 C         0.0000000000         0.0000000000        32.6653299400       48.0117359993      -44.7426438536
energy     -1130.7988589601
charge 0
end
begin
comment generated by PY
lattice        40.0000000000         0.0000000000         0.0000000000
lattice         0.0000000000        40.0000000000         0.0000000000
lattice         0.0000000000         0.0000000000        40.0000000000
atom        21.3007600000       20.3389500000       20.9176000000 H         0.0000000000         0.0000000000      -110.1786847339      -69.3443413336      -20.3875793784
atom        19.5818700000       19.7571000000       21.5100800000 H         0.0000000000         0.0000000000        95.9412826805        1.5152461092      -88.5665299134
atom        20.6228400000       18.6796700000       20.4907800000 H         0.0000000000         0.0000000000       -23.7240744355      117.9196956368       29.7558256124
atom        19.5852000000       19.4400400000       18.5631500000 H         0.0000000000         0.0000000000        11.9719097522       94.5554486498       82.2930739287
atom        18.5810100000       20.5206400000       19.5693200000 H         0.0000000000         0.0000000000       121.5653207995      -23.4656194594      -32.8449329652
atom        20.1695200000       21.1658500000       18.8839800000 H         0.0000000000         0.0000000000       -60.5403724424     -103.0621315484       46.7731050536
atom        20.3583400000       19.7454500000       20.6850600000 C         0.0000000000         0.0000000000       -11.0795658930      -17.4355722275      -23.4435243602
atom        19.6548800000       20.2626900000       19.3203600000 C         0.0000000000         0.0000000000       -23.9529877956       -0.6894580538        6.4191606318
energy     -1130.1273393194
charge 0
end
begin
comment generated by PY
lattice        40.0000000000         0.0000000000         0.0000000000
lattice         0.0000000000        40.0000000000         0.0000000000
lattice         0.0000000000         0.0000000000        40.0000000000
atom        21.2449300000       20.3057400000       20.8653500000 H         0.0000000000         0.0000000000       -83.1799230932      -75.1719666231      -38.5667432336
atom        19.8168000000       19.8942200000       21.5549200000 H         0.0000000000         0.0000000000        58.5533467035      -34.1921454394     -112.5103342348
atom        20.7158200000       18.6473000000       20.6891500000 H         0.0000000000         0.0000000000       -39.5488055143      104.2249760932      -29.7284008843
atom        19.4783200000       19.5832800000       18.5827100000 H         0.0000000000         0.0000000000         9.6818408735       78.9629068511       87.7696411498
atom        18.5762300000       20.6324400000       19.7549000000 H         0.0000000000         0.0000000000       118.9267880798      -39.1930416915      -44.8145743102
atom        20.0043100000       21.1966900000       18.8610400000 H         0.0000000000         0.0000000000       -28.6428019772      -96.2181065478       69.5613245590
atom        20.3898200000       19.6662000000       20.5741500000 C         0.0000000000         0.0000000000        14.4446626248       78.2640031117       99.2543032093
atom        19.6238000000       20.3121800000       19.4002000000 C         0.0000000000         0.0000000000       -50.2244259657      -16.6946838000      -30.9798850061
energy     -1142.0212222573
charge 0
end
begin
comment generated by PY
lattice        40.0000000000         0.0000000000         0.0000000000
lattice         0.0000000000        40.0000000000         0.0000000000
lattice         0.0000000000         0.0000000000        40.0000000000
atom        21.4176900000       20.1195200000       20.5435300000 H         0.0000000000         0.0000000000      -103.3192786486      -41.2304336353        9.7692970786
atom        19.8667600000       19.7513400000       21.5253600000 H         0.0000000000         0.0000000000        79.1839858507       -8.1744018372     -107.3791048480
atom        20.6046200000       18.6436300000       20.3260700000 H         0.0000000000         0.0000000000       -17.8203843565      104.2513018894       27.8544848284
atom        19.3241100000       19.6782900000       18.6099100000 H         0.0000000000         0.0000000000        29.7049700373       67.9846366884       88.9638571938
atom        18.5723900000       20.6900500000       19.8768200000 H         0.0000000000         0.0000000000       114.7173187481      -41.6685600764      -50.0620251719
atom        20.1589600000       21.1627300000       19.1608000000 H         0.0000000000         0.0000000000       -75.6799340744      -83.6539647138       16.3649974565
atom        20.4388800000       19.6848200000       20.5383600000 C         0.0000000000         0.0000000000       -22.0977687410      -29.2976307141        5.6109792351
atom        19.5657400000       20.3113900000       19.4581000000 C         0.0000000000         0.0000000000        -4.6923829877       31.7853551665        8.8786211337
energy     -1159.6916222853
charge 0
end
begin
comment generated by PY
lattice        40.0000000000         0.0000000000         0.0000000000
lattice         0.0000000000        40.0000000000         0.0000000000
lattice         0.0000000000         0.0000000000        40.0000000000
atom        21.4717800000       20.0064000000       20.4508700000 H         0.0000000000         0.0000000000       -96.1553297332      -39.7818683535        0.9476792257
atom        20.2856200000       19.5937800000       21.6303900000 H         0.0000000000         0.0000000000         9.4534042257        8.3504059083     -132.1495606284
atom        20.4378100000       18.6709200000       20.1082600000 H         0.0000000000         0.0000000000        18.1065317124       82.9055259067       52.9097254686
atom        19.3016700000       19.7382400000       18.6543100000 H         0.0000000000         0.0000000000        17.4971538452       62.4381161303       92.0938492652
atom        18.5581500000       20.7297900000       19.9776500000 H         0.0000000000         0.0000000000       105.7099835592      -45.6109240871      -57.2575823317
atom        19.9412100000       21.2536900000       19.0563700000 H         0.0000000000         0.0000000000       -40.4882443373      -90.4067554544       49.8967252194
atom        20.4821900000       19.6347600000       20.5096500000 C         0.0000000000         0.0000000000         2.3724850948      -10.9700730525       -9.8228954849
atom        19.5181300000       20.3658400000       19.5005200000 C         0.0000000000         0.0000000000       -16.4960619117       33.0756893362        3.3736178946
energy     -1160.9569528147
charge 0
end
begin
comment generated by PY
lattice        40.0000000000         0.0000000000         0.0000000000
lattice         0.0000000000        40.0000000000         0.0000000000
lattice         0.0000000000         0.0000000000        40.0000000000
atom        21.5270300000       19.8840900000       20.2470800000 H         0.0000000000         0.0000000000      -101.7188426826      -27.8584126943       22.7158834930
atom        20.2769900000       19.6817600000       21.5059600000 H         0.0000000000         0.0000000000        35.6565685587      -10.4758394539     -119.4958440449
atom        20.5811600000       18.4999200000       20.2884300000 H         0.0000000000         0.0000000000       -20.7458514433      112.1851704377        1.1642269408
atom        19.1763200000       19.7560400000       18.8152300000 H         0.0000000000         0.0000000000        29.4097898953       81.0855550269       66.7635379157
atom        18.5239400000       20.6062800000       20.1034900000 H         0.0000000000         0.0000000000       111.6969938461       -9.7362278899      -52.9434249895
atom        19.8391300000       21.3433600000       19.0994000000 H         0.0000000000         0.0000000000       -32.6782515145      -92.7933113861       55.7855688015
atom        20.5187600000       19.5690500000       20.4174500000 C         0.0000000000         0.0000000000        13.7248729946       16.7400928889       44.8594012814
atom        19.4875200000       20.4499800000       19.5775900000 C         0.0000000000         0.0000000000       -35.3381008844      -69.1578809024      -18.8557445018
energy     -1159.1510470812
charge 0
end
begin
comment generated by PY
lattice        40.0000000000         0.0000000000         0.0000000000
lattice         0.0000000000        40.0000000000         0.0000000000
lattice         0.0000000000         0.0000000000        40.0000000000
atom        21.5480500000       19.8751600000       20.0725600000 H         0.0000000000         0.0000000000      -106.3264002458      -39.5182160800       23.4163249818
atom        20.4439400000       19.8308400000       21.4002100000 H         0.0000000000         0.0000000000        14.8223223258      -38.4052191625     -110.3147653189
atom        20.3494500000       18.4951200000       20.1646600000 H         0.0000000000         0.0000000000        30.1151936810      116.9209161166       27.2327256878
atom        19.0324700000       20.0250800000       18.7195600000 H         0.0000000000         0.0000000000        44.9703624871       38.0650907946      101.0895888315
atom        18.7077000000       20.6588700000       20.3775600000 H         0.0000000000         0.0000000000        70.0730416371      -31.0971196863      -85.1440812021
atom        19.9116100000       21.3666400000       19.4248000000 H         0.0000000000         0.0000000000       -52.3592560522      -98.1024855524       16.7624105642
atom        20.5416200000       19.5724300000       20.3440100000 C         0.0000000000         0.0000000000       -16.4882604921        7.3583809758       11.9549886555
atom        19.4589400000       20.4066100000       19.6427200000 C         0.0000000000         0.0000000000        15.2060605660       44.7755937248       15.0106975682
energy     -1167.5412638358
charge 0
end
begin
comment generated by PY
lattice        40.0000000000         0.0000000000         0.0000000000
lattice         0.0000000000        40.0000000000         0.0000000000
lattice         0.0000000000         0.0000000000        40.0000000000
atom        21.5029700000       19.6605000000       19.7155400000 H         0.0000000000         0.0000000000      -105.6283886081       -6.7031337759       63.1299363329
atom        20.7936500000       19.6657200000       21.3062600000 H         0.0000000000         0.0000000000       -29.2306681503        2.7912509811      -99.5007205661
atom        20.2893200000       18.4623200000       20.1866400000 H         0.0000000000         0.0000000000        29.6603534516      124.4937519570       11.4020451849
atom        19.0048200000       20.1865300000       18.7549000000 H         0.0000000000         0.0000000000        53.4406518065       15.3261997662      103.7061616642
atom        18.6428300000       20.5300200000       20.4124200000 H         0.0000000000         0.0000000000        78.1352175813      -11.1640495394      -71.3905319066
atom        19.8416600000       21.4419300000       19.5897700000 H         0.0000000000         0.0000000000       -47.3831368188     -105.7489337505       13.3930428730
atom        20.5466000000       19.5795500000       20.2832200000 C         0.0000000000         0.0000000000        23.6011730930      -75.7096496472      -29.3796087095
atom        19.4471400000       20.4248600000       19.7196500000 C         0.0000000000         0.0000000000        -2.5911439116       56.7183304230        8.6421766976
energy     -1168.5573252540
charge 0
end
begin
comment generated by PY
lattice        40.0000000000         0.0000000000         0.0000000000
lattice         0.0000000000        40.0000000000         0.0000000000
lattice         0.0000000000         0.0000000000        40.0000000000
atom        21.3945500000       19.5906500000       19.4379500000 H         0.0000000000         0.0000000000       -88.7060121592      -14.8808817709       90.2788906265
atom        20.9601200000       19.8230900000       21.1546700000 H         0.0000000000         0.0000000000       -29.0592944681      -43.3139946820      -89.5630508117
atom        20.1879000000       18.4094600000       20.2467300000 H         0.0000000000         0.0000000000        47.8613486473      128.4137537957       -1.9927902346
atom        19.1790900000       20.0497700000       18.8327400000 H         0.0000000000         0.0000000000        14.7522336701       67.7259244541       98.3143978378
atom        18.5493200000       20.3655300000       20.3923200000 H         0.0000000000         0.0000000000        86.7607040116       20.8871714845      -53.7198067118
atom        19.6918600000       21.5817000000       19.6968000000 H         0.0000000000         0.0000000000       -28.3833407893     -121.1462941437       13.0771455382
atom        20.5853300000       19.5015800000       20.2153100000 C         0.0000000000         0.0000000000        -7.8101552422       20.5299761432      -12.4956745640
atom        19.4177700000       20.5133900000       19.8045700000 C         0.0000000000         0.0000000000         4.5849928435      -58.2205290272      -43.8898556117
energy     -1148.6241669917
charge 0
end
begin
comment generated by PY
lattice        40.0000000000         0.0000000000         0.0000000000
lattice         0.0000000000        40.0000000000         0.0000000000
lattice         0.0000000000         0.0000000000        40.0000000000
atom        21.2686000000       19.4076000000       19.2356500000 H         0.0000000000         0.0000000000       -78.0825894353        8.2045154325      102.7669456469
atom        21.2534300000       19.7640500000       20.9646200000 H         0.0000000000         0.0000000000       -73.2905451901      -24.9418518632      -82.2267617412
atom        20.1077400000       18.4921100000       20.3741300000 H         0.0000000000         0.0000000000        63.9167727045      112.3042536868      -27.7986130219
atom        19.0836600000       20.4067600000       18.7813500000 H         0.0000000000         0.0000000000        31.9835530862        5.8830917814      125.7698303532
atom        18.5604300000       20.3297300000       20.5169300000 H         0.0000000000         0.0000000000        88.5340751022       14.3532368220      -69.5814531161
atom        19.6460400000       21.5921400000       19.9635600000 H         0.0000000000         0.0000000000       -19.8860021205     -123.6741919841       -7.7590307992
atom        20.5939800000       19.5080400000       20.1442800000 C         0.0000000000         0.0000000000        -6.5955413790      -22.5444753823      -13.4066096830
atom        19.4126900000       20.4925900000       19.8693600000 C         0.0000000000         0.0000000000        -6.5845116041       30.4164233234      -27.7677779319
energy     -1144.5134492431
charge 0
end
begin
comment generated by PY
lattice        40.0000000000         0.0000000000         0.0000000000
lattice         0.0000000000        40.0000000000         0.0000000000
lattice         0.0000000000         0.0000000000        40.0000000000
atom        21.0469500000       19.2244600000       19.0851600000 H         0.0000000000         0.0000000000       -44.2118616515       42.2375520632      111.9618258860
atom        21.3103400000       19.8252300000       20.8285400000 H         0.0000000000         0.0000000000       -78.2381463856      -27.1102933560      -92.2027495286
atom        20.2492600000       18.5185800000       20.4476400000 H         0.0000000000         0.0000000000        30.3958610789      111.9710472878      -43.3115255867
atom        18.8913400000       20.6263100000       18.9169500000 H         0.0000000000         0.0000000000        71.4279434849      -17.4120173302      112.3917859010
atom        18.6348800000       20.1820800000       20.6339600000 H         0.0000000000         0.0000000000        84.8923071689       38.8703284063      -78.2970637155
atom        19.8605300000       21.4535900000       20.3264800000 H         0.0000000000         0.0000000000       -61.9143721274      -99.7616196576      -55.2236520977
atom        20.5662700000       19.5317700000       20.0617400000 C         0.0000000000         0.0000000000        18.2664904512      -79.2668426917       -1.7937811017
atom        19.4342900000       20.4823700000       19.9183800000 C         0.0000000000         0.0000000000       -20.6229571896       30.4766404483       46.4781658722
energy     -1143.3968747734
charge 0
end
begin
comment generated by PY
lattice        40.0000000000         0.0000000000         0.0000000000
lattice         0.0000000000        40.0000000000         0.0000000000
lattice         0.0000000000         0.0000000000        40.0000000000
atom        21.0095100000       19.3303400000       18.9388800000 H         0.0000000000         0.0000000000       -58.2706306516        3.7044698502      113.4017333615
atom        21.4112800000       19.9977100000       20.4633600000 H         0.0000000000         0.0000000000       -86.3776204763      -76.4042711540      -45.3922259833
atom        20.2729800000       18.5450700000       20.4882100000 H         0.0000000000         0.0000000000        41.8136371831       94.3436124265      -61.8720537467
atom        19.0074500000       20.7060900000       18.9755000000 H         0.0000000000         0.0000000000        37.6346972518      -21.4165364379      124.7000768939
atom        18.6129400000       20.1582000000       20.7321200000 H         0.0000000000         0.0000000000        86.6238227631       44.7889587874      -82.5213003800
atom        19.7325600000       21.5586800000       20.3965300000 H         0.0000000000         0.0000000000       -30.4387639390     -120.8558913246      -38.7920164117
atom        20.5733300000       19.4533600000       19.9638500000 C         0.0000000000         0.0000000000        31.9805628316       62.9307318992       11.2353637685
atom        19.4227700000       20.5219900000       20.0366000000 C         0.0000000000         0.0000000000       -22.9668779901       12.9072461991      -20.7587338692
energy     -1135.3006678016
charge 0
end
begin
comment generated by PY
lattice        40.0000000000         0.0000000000         0.0000000000
lattice         0.0000000000        40.0000000000         0.0000000000
lattice         0.0000000000         0.0000000000        40.0000000000
atom        20.6146800000       19.2067100000       18.8108200000 H         0.0000000000         0.0000000000         9.2849897097       36.0827202700      119.5239669095
atom        21.6275100000       19.6812700000       20.3139100000 H         0.0000000000         0.0000000000      -118.0640324623       -9.1909657610      -55.9779523310
atom        20.4412800000       18.5156700000       20.3332300000 H         0.0000000000         0.0000000000         3.7944924234       97.5244590257      -40.0360442900
atom        18.9187700000       20.7123300000       19.1106500000 H         0.0000000000         0.0000000000        58.8217088188      -14.6482873731      114.8585009933
atom        18.5187300000       20.2039200000       20.7399900000 H         0.0000000000         0.0000000000       108.8424744650       33.0010307970      -61.6446037719
atom        19.7616900000       21.5347200000       20.4998500000 H         0.0000000000         0.0000000000       -39.4144445135     -112.9998925859      -40.9631734862
atom        20.5950500000       19.4771100000       19.8902800000 C         0.0000000000         0.0000000000         5.7683498218      -43.9610475936       -4.3123953244
atom        19.4147200000       20.5349900000       20.1256700000 C         0.0000000000         0.0000000000       -29.0312391476       14.1792695267      -31.4221345514
energy     -1135.8160199920
charge 0
end
begin
comment generated by PY
lattice        40.0000000000         0.0000000000         0.0000000000
lattice         0.0000000000        40.0000000000         0.0000000000
lattice         0.0000000000         0.0000000000        40.0000000000
atom        20.4533600000       19.2942000000       18.7555100000 H         0.0000000000         0.0000000000        15.8174562465       16.1184929581      114.8480698423
atom        21.6334200000       19.8211900000       19.9604200000 H         0.0000000000         0.0000000000      -126.8345910360      -38.5971864271       -7.6199690941
atom        20.3165200000       18.5944800000       20.2985800000 H         0.0000000000         0.0000000000        35.2052886184       80.5280240510      -41.9149104367
atom        18.9019300000       20.8420900000       19.2750000000 H         0.0000000000         0.0000000000        56.0960401663      -36.3138409339      105.5110341890
atom        18.7826200000       20.0497100000       20.9572600000 H         0.0000000000         0.0000000000        67.5334371656       55.6944747291      -93.0782822951
atom        19.8913700000       21.3774700000       20.6704900000 H         0.0000000000         0.0000000000       -51.7763907127      -87.8554213296      -54.5236534348
atom        20.5498200000       19.4938400000       19.8283400000 C         0.0000000000         0.0000000000        -3.5982004548        1.1952094664      -50.4436114817
atom        19.4519100000       20.5079000000       20.1785500000 C         0.0000000000         0.0000000000         7.5562843113        9.2339524765       27.2168981465
energy     -1158.6170222035
charge 0
end
begin
comment generated by PY
lattice        40.0000000000         0.0000000000         0.0000000000
lattice         0.0000000000        40.0000000000         0.0000000000
lattice         0.0000000000         0.0000000000        40.0000000000