begin
comment generated by PY
lattice        20.0000000000         0.0000000000         0.0000000000
lattice         0.0000000000        20.0000000000         0.0000000000
lattice         0.0000000000         0.0000000000        20.0000000000
atom        10.0000000000       11.0189600000       10.9572300000 H         0.0000000000         0.0000000000         0.0000461211     -111.2306781223      -24.4781275460
atom         9.1175600000        9.4905200000       10.9572300000 H         0.0000000000         0.0000000000        96.3224102305       55.6105433187      -24.4803573000
atom        10.8824400000        9.4905200000       10.9572300000 H         0.0000000000         0.0000000000       -96.3223410489       55.6105894398      -24.4804495422
atom        10.0000000000        8.9810400000        9.0427700000 H         0.0000000000         0.0000000000        -0.0000230605      111.2322231791       24.4790038468
atom         9.1175600000       10.5094800000        9.0427700000 H         0.0000000000         0.0000000000        96.3245087404      -55.6119038910       24.4815795090
atom        10.8824400000       10.5094800000        9.0427700000 H         0.0000000000         0.0000000000       -96.3242320138      -55.6117194066       24.4814180852
atom        10.0000000000       10.0000000000       10.5622100000 C         0.0000000000         0.0000000000         0.0000230605        0.0087930432      559.7047624028
atom        10.0000000000       10.0000000000        9.4377900000 C         0.0000000000         0.0000000000        -0.0003920293       -0.0078475607     -559.7078063952
energy     -1137.7925132081
charge 0
end
begin
comment generated by PY
lattice        20.0000000000         0.0000000000         0.0000000000
lattice         0.0000000000        20.0000000000         0.0000000000
lattice         0.0000000000         0.0000000000        20.0000000000
atom        10.0000000000       11.0189600000       10.9672300000 H         0.0000000000         0.0000000000         0.0000230605     -111.2754388712      -25.5765849927
atom         9.1175600000        9.4905200000       10.9672300000 H         0.0000000000         0.0000000000        96.3617250255       55.6328427683      -25.5802214401
atom        10.8824400000        9.4905200000       10.9672300000 H         0.0000000000         0.0000000000       -96.3615866623       55.6328197078      -25.5802675612
atom        10.0000000000        8.9810400000        9.0327700000 H         0.0000000000         0.0000000000        -0.0000000000      111.2779755315       25.5778994439
atom         9.1175600000       10.5094800000        9.0327700000 H         0.0000000000         0.0000000000        96.3647690179      -55.6347567938       25.5819048601
atom        10.8824400000       10.5094800000        9.0327700000 H         0.0000000000         0.0000000000       -96.3645153519      -55.6345953700       25.5817664968
atom        10.0000000000       10.0000000000       10.5722100000 C         0.0000000000         0.0000000000        -0.0000230605        0.0080283751      492.2314536238
atom        10.0000000000       10.0000000000        9.4277900000 C         0.0000000000         0.0000000000        -0.0003920293       -0.0068753477     -492.2359734912
energy     -1146.7920660869
charge 0
end
begin
comment generated by PY
lattice        20.0000000000         0.0000000000         0.0000000000
lattice         0.0000000000        20.0000000000         0.0000000000
lattice         0.0000000000         0.0000000000        20.0000000000
atom        10.0000000000       11.0189600000       10.9772300000 H         0.0000000000         0.0000000000        -0.0000000000     -111.2231002860      -26.6216915195
atom         9.1175600000        9.4905200000       10.9772300000 H         0.0000000000         0.0000000000        96.3170828701       55.6078533362      -26.6266193575
atom        10.8824400000        9.4905200000       10.9772300000 H         0.0000000000         0.0000000000       -96.3171059307       55.6078763967      -26.6266654786
atom        10.0000000000        8.9810400000        9.0227700000 H         0.0000000000         0.0000000000        -0.0000000000      111.2222470458       26.6209997030
atom         9.1175600000       10.5094800000        9.0227700000 H         0.0000000000         0.0000000000        96.3162065693      -55.6073460041       26.6258352989
atom        10.8824400000       10.5094800000        9.0227700000 H         0.0000000000         0.0000000000       -96.3162296298      -55.6073690646       26.6258583595
atom        10.0000000000       10.0000000000       10.5822100000 C         0.0000000000         0.0000000000         0.0000461211        0.0061109696      431.7603737988
atom        10.0000000000       10.0000000000        9.4177900000 C         0.0000000000         0.0000000000         0.0000230605       -0.0062723934     -431.7580908045
energy     -1154.5027239374
charge 0
end
begin
comment generated by PY
lattice        20.0000000000         0.0000000000         0.0000000000
lattice         0.0000000000        20.0000000000         0.0000000000
lattice         0.0000000000         0.0000000000        20.0000000000
atom        10.0000000000       11.0189600000       10.9872300000 H         0.0000000000         0.0000000000        -0.0000000000     -111.2365222245      -27.6284205411
atom         9.1175600000        9.4905200000       10.9872300000 H         0.0000000000         0.0000000000        96.3299748904       55.6163479383      -27.6337404085
atom        10.8824400000        9.4905200000       10.9872300000 H         0.0000000000         0.0000000000       -96.3299748904       55.6163709988      -27.6337404085
atom        10.0000000000        8.9810400000        9.0127700000 H         0.0000000000         0.0000000000        -0.0000230605      111.2361301952       27.6280285118
atom         9.1175600000       10.5094800000        9.0127700000 H         0.0000000000         0.0000000000        96.3295598006      -55.6160942723       27.6333022581
atom        10.8824400000       10.5094800000        9.0127700000 H         0.0000000000         0.0000000000       -96.3295598006      -55.6160942723       27.6333022581
atom        10.0000000000       10.0000000000       10.5922100000 C         0.0000000000         0.0000000000         0.0000461211        0.0062000818      377.8517395926
atom        10.0000000000       10.0000000000        9.4077900000 C         0.0000000000         0.0000000000        -0.0000230605       -0.0063384451     -377.8504482019
energy     -1160.9599201876
charge 0
end
begin
comment generated by PY
lattice        20.0000000000         0.0000000000         0.0000000000
lattice         0.0000000000        20.0000000000         0.0000000000
lattice         0.0000000000         0.0000000000        20.0000000000
atom        10.0000000000       11.0189600000       10.9972300000 H         0.0000000000         0.0000000000        -0.0000000000     -111.2443406871      -28.6041430365
atom         9.1175600000        9.4905200000       10.9972300000 H         0.0000000000         0.0000000000        96.3368839408       55.6212217272      -28.6087249664
atom        10.8824400000        9.4905200000       10.9972300000 H         0.0000000000         0.0000000000       -96.3369070013       55.6212217272      -28.6087249664
atom        10.0000000000        8.9810400000        9.0027700000 H         0.0000000000         0.0000000000        -0.0000000000      111.2434643863       28.6035895834
atom         9.1175600000       10.5094800000        9.0027700000 H         0.0000000000         0.0000000000        96.3360768216      -55.6207374557       28.6081484527
atom        10.8824400000       10.5094800000        9.0027700000 H         0.0000000000         0.0000000000       -96.3360768216      -55.6207143952       28.6081484527
atom        10.0000000000       10.0000000000       10.6022100000 C         0.0000000000         0.0000000000         0.0000461211        0.0063124945      329.6756230513
atom        10.0000000000       10.0000000000        9.3977900000 C         0.0000000000         0.0000000000        -0.0000230605       -0.0064047367     -329.6739165708
energy     -1166.3382294948
charge 0
end
begin
comment generated by PY
lattice        20.0000000000         0.0000000000         0.0000000000
lattice         0.0000000000        20.0000000000         0.0000000000
lattice         0.0000000000         0.0000000000        20.0000000000
atom        10.0000000000       11.0189600000       11.0072300000 H         0.0000000000         0.0000000000        -0.0000000000     -111.2301574953      -29.5311862296
atom         9.1175600000        9.4905200000       11.0072300000 H         0.0000000000         0.0000000000        96.3244034464       55.6137265717      -29.5344767688
atom        10.8824400000        9.4905200000       11.0072300000 H         0.0000000000         0.0000000000       -96.3244034464       55.6137265717      -29.5344767688
atom        10.0000000000        8.9810400000        8.9927700000 H         0.0000000000         0.0000000000        -0.0000000000      111.2298346476       29.5310939874
atom         9.1175600000       10.5094800000        8.9927700000 H         0.0000000000         0.0000000000        96.3241267198      -55.6135651479       29.5343845266
atom        10.8824400000       10.5094800000        8.9927700000 H         0.0000000000         0.0000000000       -96.3241267198      -55.6135651479       29.5343845266
atom        10.0000000000       10.0000000000       10.6122100000 C         0.0000000000         0.0000000000        -0.0000000000        0.0062175824      286.7310696026
atom        10.0000000000       10.0000000000        9.3877900000 C         0.0000000000         0.0000000000        -0.0000000000       -0.0062175824     -286.7307928760
energy     -1170.7493726913
charge 0
end
begin
comment generated by PY
lattice        20.0000000000         0.0000000000         0.0000000000
lattice         0.0000000000        20.0000000000         0.0000000000
lattice         0.0000000000         0.0000000000        20.0000000000
atom        10.0000000000       11.0189600000       11.0172300000 H         0.0000000000         0.0000000000        -0.0000000000     -111.1954946452      -30.4193271539
atom         9.1175600000        9.4905200000       11.0172300000 H         0.0000000000         0.0000000000        96.2931015245       55.5945616203      -30.4218950583
atom        10.8824400000        9.4905200000       11.0172300000 H         0.0000000000         0.0000000000       -96.2931015245       55.5945616203      -30.4218950583
atom        10.0000000000        8.9810400000        8.9827700000 H         0.0000000000         0.0000000000        -0.0000000000      111.1953562820       30.4192349117
atom         9.1175600000       10.5094800000        8.9827700000 H         0.0000000000         0.0000000000        96.2929631612      -55.5944693781       30.4218028161
atom        10.8824400000       10.5094800000        8.9827700000 H         0.0000000000         0.0000000000       -96.2929631612      -55.5944693781       30.4218028161
atom        10.0000000000       10.0000000000       10.6222100000 C         0.0000000000         0.0000000000         0.0000230605        0.0059614563      248.4698100583
atom        10.0000000000       10.0000000000        9.3777900000 C         0.0000000000         0.0000000000        -0.0000230605       -0.0059614563     -248.4695563923
energy     -1174.2947991727
charge 0
end
begin
comment generated by PY
lattice        20.0000000000         0.0000000000         0.0000000000
lattice         0.0000000000        20.0000000000         0.0000000000
lattice         0.0000000000         0.0000000000        20.0000000000
atom        10.0000000000       11.0189600000       11.0272300000 H         0.0000000000         0.0000000000        -0.0000000000     -111.1493205614      -31.2642912118
atom         9.1175600000        9.4905200000       11.0272300000 H         0.0000000000         0.0000000000        96.2539696601       55.5710674592      -31.2675125694
atom        10.8824400000        9.4905200000       11.0272300000 H         0.0000000000         0.0000000000       -96.2539696601       55.5710674592      -31.2675125694
atom        10.0000000000        8.9810400000        8.9727700000 H         0.0000000000         0.0000000000        -0.0000000000      111.1487671083       31.2639683641
atom         9.1175600000       10.5094800000        8.9727700000 H         0.0000000000         0.0000000000        96.2534853886      -55.5707907326       31.2671897217
atom        10.8824400000       10.5094800000        8.9727700000 H         0.0000000000         0.0000000000       -96.2534853886      -55.5707907326       31.2671897217
atom        10.0000000000       10.0000000000       10.6322100000 C         0.0000000000         0.0000000000         0.0000230605        0.0062359229      214.4618939121
atom        10.0000000000       10.0000000000        9.3677900000 C         0.0000000000         0.0000000000        -0.0000230605       -0.0062359229     -214.4609253691
energy     -1177.0655231272
charge 0
end
begin
comment generated by PY
lattice        20.0000000000         0.0000000000         0.0000000000
lattice         0.0000000000        20.0000000000         0.0000000000
lattice         0.0000000000         0.0000000000        20.0000000000
atom        10.0000000000       11.0189600000       11.0372300000 H         0.0000000000         0.0000000000        -0.0000000000     -111.1034737014      -32.0885773145
atom         9.1175600000        9.4905200000       11.0372300000 H         0.0000000000         0.0000000000        96.2148631036       55.5481094384      -32.0925596701
atom        10.8824400000        9.4905200000       11.0372300000 H         0.0000000000         0.0000000000       -96.2148631036       55.5481094384      -32.0925596701
atom        10.0000000000        8.9810400000        8.9627700000 H         0.0000000000         0.0000000000        -0.0000000000      111.1035659436       32.0885542540
atom         9.1175600000       10.5094800000        8.9627700000 H         0.0000000000         0.0000000000        96.2149322852      -55.5481555595       32.0925366096
atom        10.8824400000       10.5094800000        8.9627700000 H         0.0000000000         0.0000000000       -96.2149322852      -55.5481555595       32.0925596701
atom        10.0000000000       10.0000000000       10.6422100000 C         0.0000000000         0.0000000000        -0.0000000000        0.0062107724      184.1610282768
atom        10.0000000000       10.0000000000        9.3577900000 C         0.0000000000         0.0000000000        -0.0000000000       -0.0062107724     -184.1610052163
energy     -1179.1440687961
charge 0
end
begin
comment generated by PY
lattice        20.0000000000         0.0000000000         0.0000000000
lattice         0.0000000000        20.0000000000         0.0000000000
lattice         0.0000000000         0.0000000000        20.0000000000
atom        10.0000000000       11.0189600000       11.0472300000 H         0.0000000000         0.0000000000        -0.0000000000     -111.0533712838      -32.8799472173
atom         9.1175600000        9.4905200000       11.0472300000 H         0.0000000000         0.0000000000        96.1712305306       55.5231043507      -32.8845060866
atom        10.8824400000        9.4905200000       11.0472300000 H         0.0000000000         0.0000000000       -96.1712305306       55.5231043507      -32.8845060866
atom        10.0000000000        8.9810400000        8.9527700000 H         0.0000000000         0.0000000000        -0.0000000000      111.0532559811       32.8798549751
atom         9.1175600000       10.5094800000        8.9527700000 H         0.0000000000         0.0000000000        96.1711382884      -55.5230582296       32.8844138445
atom        10.8824400000       10.5094800000        8.9527700000 H         0.0000000000         0.0000000000       -96.1711152278      -55.5230351690       32.8844138445
atom        10.0000000000       10.0000000000       10.6522100000 C         0.0000000000         0.0000000000        -0.0000000000        0.0062780340      157.3025742538
atom        10.0000000000       10.0000000000        9.3477900000 C         0.0000000000         0.0000000000        -0.0000000000       -0.0063010945     -157.3023205878
energy     -1180.6040284464
charge 0
end
begin
comment generated by PY
lattice        20.0000000000         0.0000000000         0.0000000000
lattice         0.0000000000        20.0000000000         0.0000000000
lattice         0.0000000000         0.0000000000        20.0000000000
atom        10.0000000000       11.0189600000       11.0572300000 H         0.0000000000         0.0000000000        -0.0000000000     -110.9827786828      -33.6401914594
atom         9.1175600000        9.4905200000       11.0572300000 H         0.0000000000         0.0000000000        96.1097345479       55.4887495473      -33.6451654186
atom        10.8824400000        9.4905200000       11.0572300000 H         0.0000000000         0.0000000000       -96.1097576084       55.4887495473      -33.6451654186
atom        10.0000000000        8.9810400000        8.9427700000 H         0.0000000000         0.0000000000        -0.0000000000      110.9826172590       33.6400300356
atom         9.1175600000       10.5094800000        8.9427700000 H         0.0000000000         0.0000000000        96.1095961846      -55.4886573051       33.6450039948
atom        10.8824400000       10.5094800000        8.9427700000 H         0.0000000000         0.0000000000       -96.1095961846      -55.4886573051       33.6450039948
atom        10.0000000000       10.0000000000       10.6622100000 C         0.0000000000         0.0000000000        -0.0000000000        0.0062301429      133.5103872241
atom        10.0000000000       10.0000000000        9.3377900000 C         0.0000000000         0.0000000000        -0.0000000000       -0.0062532034     -133.5099029526
energy     -1181.5119203785
charge 0
end
begin
comment generated by PY
lattice        20.0000000000         0.0000000000         0.0000000000
lattice         0.0000000000        20.0000000000         0.0000000000
lattice         0.0000000000         0.0000000000        20.0000000000
atom        10.0000000000       11.0189600000       11.0672300000 H         0.0000000000         0.0000000000        -0.0000000000     -110.8993352075      -34.3753590236
atom         9.1175600000        9.4905200000       11.0672300000 H         0.0000000000         0.0000000000        96.0381234996       55.4482883820      -34.3797487113
atom        10.8824400000        9.4905200000       11.0672300000 H         0.0000000000         0.0000000000       -96.0381004391       55.4482883820      -34.3797256508
atom        10.0000000000        8.9810400000        8.9327700000 H         0.0000000000         0.0000000000        -0.0000000000      110.8992890864       34.3753129025
atom         9.1175600000       10.5094800000        8.9327700000 H         0.0000000000         0.0000000000        96.0380543180      -55.4482653214       34.3796795297
atom        10.8824400000       10.5094800000        8.9327700000 H         0.0000000000         0.0000000000       -96.0380543180      -55.4482653214       34.3796795297
atom        10.0000000000       10.0000000000       10.6722100000 C         0.0000000000         0.0000000000        -0.0000461211        0.0062515734      112.4739602206
atom        10.0000000000       10.0000000000        9.3277900000 C         0.0000000000         0.0000000000         0.0000461211       -0.0062746340     -112.4737987968
energy     -1181.9271250080
charge 0
end
begin
comment generated by PY
lattice        20.0000000000         0.0000000000         0.0000000000
lattice         0.0000000000        20.0000000000         0.0000000000
lattice         0.0000000000         0.0000000000        20.0000000000
atom        10.0000000000       11.0189600000       11.0772300000 H         0.0000000000         0.0000000000        -0.0000000000     -110.8026865532      -35.0846574548
atom         9.1175600000        9.4905200000       11.0772300000 H         0.0000000000         0.0000000000        95.9547286300       55.3998757980      -35.0877096307
atom        10.8824400000        9.4905200000       11.0772300000 H         0.0000000000         0.0000000000       -95.9547286300       55.3998988585      -35.0877096307
atom        10.0000000000        8.9810400000        8.9227700000 H         0.0000000000         0.0000000000        -0.0000000000      110.8024790083       35.0845421521
atom         9.1175600000       10.5094800000        8.9227700000 H         0.0000000000         0.0000000000        95.9545441456      -55.3997835558       35.0875943280
atom        10.8824400000       10.5094800000        8.9227700000 H         0.0000000000         0.0000000000       -95.9545441456      -55.3997835558       35.0875943280
atom        10.0000000000       10.0000000000       10.6822100000 C         0.0000000000         0.0000000000        -0.0000000000        0.0059733569       93.9165775237
atom        10.0000000000       10.0000000000        9.3177900000 C         0.0000000000         0.0000000000        -0.0000000000       -0.0059964174      -93.9161854943
energy     -1181.9032134243
charge 0
end
begin
comment generated by PY
lattice        20.0000000000         0.0000000000         0.0000000000
lattice         0.0000000000        20.0000000000         0.0000000000
lattice         0.0000000000         0.0000000000        20.0000000000
atom        10.0000000000       11.0189600000       11.0872300000 H         0.0000000000         0.0000000000        -0.0000000000     -110.7053776581      -35.7701540187
atom         9.1175600000        9.4905200000       11.0872300000 H         0.0000000000         0.0000000000        95.8707804258       55.3499838386      -35.7726604993
atom        10.8824400000        9.4905200000       11.0872300000 H         0.0000000000         0.0000000000       -95.8707804258       55.3500068992      -35.7726374387
atom        10.0000000000        8.9810400000        8.9127700000 H         0.0000000000         0.0000000000        -0.0000000000      110.7049856288       35.7699234133
atom         9.1175600000       10.5094800000        8.9127700000 H         0.0000000000         0.0000000000        95.8704114570      -55.3497993542       35.7723837727
atom        10.8824400000       10.5094800000        8.9127700000 H         0.0000000000         0.0000000000       -95.8704114570      -55.3497762937       35.7723837727
atom        10.0000000000       10.0000000000       10.6922100000 C         0.0000000000         0.0000000000        -0.0000000000        0.0058566841       77.5906715208
atom        10.0000000000       10.0000000000        9.3077900000 C         0.0000000000         0.0000000000        -0.0000000000       -0.0058797447      -77.5899105227
energy     -1181.4888991216
charge 0
end
begin
comment generated by PY
lattice        20.0000000000         0.0000000000         0.0000000000
lattice         0.0000000000        20.0000000000         0.0000000000
lattice         0.0000000000         0.0000000000        20.0000000000
atom        10.0000000000       11.0189600000       11.0972300000 H         0.0000000000         0.0000000000        -0.0000000000     -110.6018048089      -36.4282661469
atom         9.1175600000        9.4905200000       11.0972300000 H         0.0000000000         0.0000000000        95.7794969571       55.2966674472      -36.4309954752
atom        10.8824400000        9.4905200000       11.0972300000 H         0.0000000000         0.0000000000       -95.7794969571       55.2966905077      -36.4309954752
atom        10.0000000000        8.9810400000        8.9027700000 H         0.0000000000         0.0000000000        -0.0000000000      110.6014358401       36.4280586020
atom         9.1175600000       10.5094800000        8.9027700000 H         0.0000000000         0.0000000000        95.7791741094      -55.2964829628       36.4307648697
atom        10.8824400000       10.5094800000        8.9027700000 H         0.0000000000         0.0000000000       -95.7791741094      -55.2964829628       36.4307648697
atom        10.0000000000       10.0000000000       10.7022100000 C         0.0000000000         0.0000000000        -0.0000000000        0.0057170608       63.2861630799
atom        10.0000000000       10.0000000000        9.2977900000 C         0.0000000000         0.0000000000        -0.0000000000       -0.0057401214      -63.2854712635
energy     -1180.7283408244
charge 0
end
begin
comment generated by PY
lattice        20.0000000000         0.0000000000         0.0000000000
lattice         0.0000000000        20.0000000000         0.0000000000
lattice         0.0000000000         0.0000000000        20.0000000000
atom        10.0000000000       11.0189600000       11.1072300000 H         0.0000000000         0.0000000000        -0.0000000000     -110.4900749120      -37.0623600408
atom         9.1175600000        9.4905200000       11.1072300000 H         0.0000000000         0.0000000000        95.6841004331       55.2410641354      -37.0658120038
atom        10.8824400000        9.4905200000       11.1072300000 H         0.0000000000         0.0000000000       -95.6841004331       55.2410641354      -37.0658120038
atom        10.0000000000        8.9810400000        8.8927700000 H         0.0000000000         0.0000000000        -0.0000000000      110.4896598222       37.0621063747
atom         9.1175600000       10.5094800000        8.8927700000 H         0.0000000000         0.0000000000        95.6837314643      -55.2408565905       37.0655352772
atom        10.8824400000       10.5094800000        8.8927700000 H         0.0000000000         0.0000000000       -95.6837314643      -55.2408335300       37.0655583378
atom        10.0000000000       10.0000000000       10.7122100000 C         0.0000000000         0.0000000000        -0.0000000000        0.0057389714       50.8109139622
atom        10.0000000000       10.0000000000        9.2877900000 C         0.0000000000         0.0000000000        -0.0000000000       -0.0057389714      -50.8101299036
energy     -1179.6615791085
charge 0
end
begin
comment generated by PY
lattice        20.0000000000         0.0000000000         0.0000000000
lattice         0.0000000000        20.0000000000         0.0000000000
lattice         0.0000000000         0.0000000000        20.0000000000
atom        10.0000000000       11.0189600000       11.1172300000 H         0.0000000000         0.0000000000        -0.0000000000     -110.3743787195      -37.6740572707
atom         9.1175600000        9.4905200000       11.1172300000 H         0.0000000000         0.0000000000        95.5829137013       55.1827814483      -37.6779626868
atom        10.8824400000        9.4905200000       11.1172300000 H         0.0000000000         0.0000000000       -95.5828906408       55.1827814483      -37.6779626868
atom        10.0000000000        8.9810400000        8.8827700000 H         0.0000000000         0.0000000000        -0.0000000000      110.3740097507       37.6738497257
atom         9.1175600000       10.5094800000        8.8827700000 H         0.0000000000         0.0000000000        95.5825908537      -55.1826200245       37.6777551419
atom        10.8824400000       10.5094800000        8.8827700000 H         0.0000000000         0.0000000000       -95.5825908537      -55.1825969640       37.6777551419
atom        10.0000000000       10.0000000000       10.7222100000 C         0.0000000000         0.0000000000        -0.0000000000        0.0057379114       39.9862267423
atom        10.0000000000       10.0000000000        9.2777900000 C         0.0000000000         0.0000000000        -0.0000000000       -0.0057379114      -39.9856271680
energy     -1178.3247171951
charge 0
end
begin
comment generated by PY
lattice        20.0000000000         0.0000000000         0.0000000000
lattice         0.0000000000        20.0000000000         0.0000000000
lattice         0.0000000000         0.0000000000        20.0000000000
atom        10.0000000000       11.0189600000       11.1272300000 H         0.0000000000         0.0000000000        -0.0000000000     -110.2507015671      -38.2668854618
atom         9.1175600000        9.4905200000       11.1272300000 H         0.0000000000         0.0000000000        95.4765593967       55.1221344757      -38.2713520889
atom        10.8824400000        9.4905200000       11.1272300000 H         0.0000000000         0.0000000000       -95.4765593967       55.1221344757      -38.2713520889
atom        10.0000000000        8.9810400000        8.8727700000 H         0.0000000000         0.0000000000        -0.0000000000      110.2503325984       38.2667009774
atom         9.1175600000       10.5094800000        8.8727700000 H         0.0000000000         0.0000000000        95.4762596096      -55.1219499914       38.2711445440
atom        10.8824400000       10.5094800000        8.8727700000 H         0.0000000000         0.0000000000       -95.4762365490      -55.1219499914       38.2711445440
atom        10.0000000000       10.0000000000       10.7322100000 C         0.0000000000         0.0000000000        -0.0000000000        0.0056908203       30.6419953662
atom        10.0000000000       10.0000000000        9.2677900000 C         0.0000000000         0.0000000000        -0.0000000000       -0.0056908203      -30.6414188525
energy     -1176.7501827295
charge 0
end
begin
comment generated by PY
lattice        20.0000000000         0.0000000000         0.0000000000
lattice         0.0000000000        20.0000000000         0.0000000000
lattice         0.0000000000         0.0000000000        20.0000000000