begin
comment generated by PY
lattice        20.0000000000         0.0000000000         0.0000000000
lattice         0.0000000000        20.0000000000         0.0000000000
lattice         0.0000000000         0.0000000000        20.0000000000
atom        10.0000000000       11.0273000000       11.1618400000 H         0.0000000000         0.0000000000         0.0000000000     -112.3809497280      -40.8011714867
atom         9.1103300000        9.4863500000       11.1618300000 H         0.0000000000         0.0000000000        97.3242716785       56.1897639723      -40.8017475746
atom        10.8896700000        9.4863500000       11.1618300000 H         0.0000000000         0.0000000000       -97.3242716785       56.1897639723      -40.8017475746
atom        10.0000000000        8.9727000000        8.8381600000 H         0.0000000000         0.0000000000        -0.0000000000      112.3802579115       40.8008255784
atom         9.1103300000       10.5136500000        8.8381700000 H         0.0000000000         0.0000000000        97.3236721042      -56.1894180641       40.8014016664
atom        10.8896700000       10.5136500000        8.8381700000 H         0.0000000000         0.0000000000       -97.3236721042      -56.1894180641       40.8014016664
atom        10.0000000000       10.0000000000       10.7644200000 C         0.0000000000         0.0000000000        -0.0000000000       -0.0010090179       11.2126335674
atom        10.0000000000       10.0000000000        9.2355800000 C         0.0000000000         0.0000000000        -0.0000000000        0.0010090179      -11.2115958428
energy     -1164.2486465142
charge 0
end
begin
comment generated by PY
lattice        20.0000000000         0.0000000000         0.0000000000
lattice         0.0000000000        20.0000000000         0.0000000000
lattice         0.0000000000         0.0000000000        20.0000000000
atom        10.0000000000       11.0273000000       11.1618400000 H         0.0000000000         0.0000000000        -0.4560319502     -112.4375759087      -40.7593240427
atom         9.1103300000        9.4863500000       11.1618300000 H         0.0000000000         0.0000000000        97.6007359550       55.8228011890      -40.7598001306
atom        10.8896700000        9.4863500000       11.1618300000 H         0.0000000000         0.0000000000       -97.1459406533       56.6105781257      -40.7601229783
atom        10.1340900000        8.9814900000        8.8381600000 H         0.0000000000         0.0000000000       -15.1251737769      111.4156248701       40.7600083142
atom         9.0508900000       10.3931300000        8.8381700000 H         0.0000000000         0.0000000000       104.0520501234      -42.6065341148       40.7573089528
atom        10.8150100000       10.6253900000        8.8381700000 H         0.0000000000         0.0000000000       -88.9231793267      -68.8034715266       40.7597690994
atom        10.0000000000       10.0000000000       10.7644200000 C         0.0000000000         0.0000000000         0.0004119850       -0.0014732759       11.4614650640
atom        10.0000000000       10.0000000000        9.2355800000 C         0.0000000000         0.0000000000        -0.0030184101       -0.0001813279      -11.4592042788
energy     -1164.1551326739
charge 0
end
begin
comment generated by PY
lattice        20.0000000000         0.0000000000         0.0000000000
lattice         0.0000000000        20.0000000000         0.0000000000
lattice         0.0000000000         0.0000000000        20.0000000000
atom        10.0000000000       11.0273000000       11.1618400000 H         0.0000000000         0.0000000000        -0.8436313018     -112.5860542623      -40.6379237872
atom         9.1103300000        9.4863500000       11.1618300000 H         0.0000000000         0.0000000000        97.9269392790       55.5618493293      -40.6387227228
atom        10.8896700000        9.4863500000       11.1618300000 H         0.0000000000         0.0000000000       -97.0819449838       57.0232680599      -40.6393222970
atom        10.2658800000        9.0077100000        8.8381600000 H         0.0000000000         0.0000000000       -29.9494406019      108.5263506281       40.6386317578
atom         9.0077000000       10.2658900000        8.8381700000 H         0.0000000000         0.0000000000       108.9664712377      -28.3206357842       40.6367621505
atom        10.7264100000       10.7264200000        8.8381700000 H         0.0000000000         0.0000000000       -79.0129101298      -80.2060902933       40.6394063557
atom        10.0000000000       10.0000000000       10.7644200000 C         0.0000000000         0.0000000000         0.0012825847        0.0001366165       12.1709316458
atom        10.0000000000       10.0000000000        9.2355800000 C         0.0000000000         0.0000000000        -0.0065147892        0.0018479989      -12.1697861634
energy     -1163.8907472251
charge 0
end
begin
comment generated by PY
lattice        20.0000000000         0.0000000000         0.0000000000
lattice         0.0000000000        20.0000000000         0.0000000000
lattice         0.0000000000         0.0000000000        20.0000000000
atom        10.0000000000       11.0273000000       11.1618400000 H         0.0000000000         0.0000000000        -1.1085046071     -112.8176700304      -40.4542631509
atom         9.1103300000        9.4863500000       11.1618300000 H         0.0000000000         0.0000000000        98.2576318650       55.4473695555      -40.4555310553
atom        10.8896700000        9.4863500000       11.1618300000 H         0.0000000000         0.0000000000       -97.1510089834       57.3673648791      -40.4560536901
atom        10.3931300000        9.0509000000        8.8381600000 H         0.0000000000         0.0000000000       -44.1957865924      103.8025310922       40.4540327583
atom         8.9814800000       10.1340900000        8.8381700000 H         0.0000000000         0.0000000000       112.0020289424      -13.6257923938       40.4538314810
atom        10.6253800000       10.8150200000        8.8381700000 H         0.0000000000         0.0000000000       -67.7935976247      -90.1768533624       40.4548771764
atom        10.0000000000       10.0000000000       10.7644200000 C         0.0000000000         0.0000000000        -0.0001931913       -0.0004850093       13.2443634955
atom        10.0000000000       10.0000000000        9.2355800000 C         0.0000000000         0.0000000000        -0.0100998439        0.0040850428      -13.2411800755
energy     -1163.4909645185
charge 0
end
begin
comment generated by PY
lattice        20.0000000000         0.0000000000         0.0000000000
lattice         0.0000000000        20.0000000000         0.0000000000
lattice         0.0000000000         0.0000000000        20.0000000000
atom        10.0000000000       11.0273000000       11.1618400000 H         0.0000000000         0.0000000000        -1.2066130315     -113.0882790565      -40.2328893893
atom         9.1103300000        9.4863500000       11.1618300000 H         0.0000000000         0.0000000000        98.5402920968       55.4974859682      -40.2342956569
atom        10.8896700000        9.4863500000       11.1618300000 H         0.0000000000         0.0000000000       -97.3342846396       57.5887256096      -40.2345646257
atom        10.5136500000        9.1103300000        8.8381600000 H         0.0000000000         0.0000000000       -57.5845201934       97.3277574401       40.2338424167
atom         8.9726900000       10.0000000000        8.8381700000 H         0.0000000000         0.0000000000       113.0911448321        1.2064446076       40.2316503873
atom        10.5136500000       10.8896700000        8.8381700000 H         0.0000000000         0.0000000000       -55.4967633334      -98.5400076124       40.2337344460
atom        10.0000000000       10.0000000000       10.7644200000 C         0.0000000000         0.0000000000         0.0006143121       -0.0006184856       14.5369324009
atom        10.0000000000       10.0000000000        9.2355800000 C         0.0000000000         0.0000000000        -0.0096179858        0.0080432595      -14.5343869184
energy     -1163.0178228929
charge 0
end
begin
comment generated by PY
lattice        20.0000000000         0.0000000000         0.0000000000
lattice         0.0000000000        20.0000000000         0.0000000000
lattice         0.0000000000         0.0000000000        20.0000000000
atom        10.0000000000       11.0273000000       11.1618400000 H         0.0000000000         0.0000000000        -1.1231534411     -113.3695713839      -40.0146831063
atom         9.1103300000        9.4863500000       11.1618300000 H         0.0000000000         0.0000000000        98.7412157657       55.7129826262      -40.0160432529
atom        10.8896700000        9.4863500000       11.1618300000 H         0.0000000000         0.0000000000       -97.6215574068       57.6566510331      -40.0160816161
atom        10.6253800000        9.1849900000        8.8381600000 H         0.0000000000         0.0000000000       -69.8956397020       89.2541229299       40.0159977704
atom         8.9814800000        9.8659100000        8.8381700000 H         0.0000000000         0.0000000000       112.2563593503       15.9082541197       40.0140208309
atom        10.3931300000       10.9491100000        8.8381700000 H         0.0000000000         0.0000000000       -42.3466380498     -105.1688715148       40.0126680164
atom        10.0000000000       10.0000000000       10.7644200000 C         0.0000000000         0.0000000000         0.0002396324       -0.0006276556       15.8126362879
atom        10.0000000000       10.0000000000        9.2355800000 C         0.0000000000         0.0000000000        -0.0110351992        0.0078488401      -15.8085379909
energy     -1162.5419919083
charge 0
end
begin
comment generated by PY
lattice        20.0000000000         0.0000000000         0.0000000000
lattice         0.0000000000        20.0000000000         0.0000000000
lattice         0.0000000000         0.0000000000        20.0000000000
atom        10.0000000000       11.0273000000       11.1618400000 H         0.0000000000         0.0000000000        -0.8635928811     -113.6117635471      -39.8265038798
atom         9.1103300000        9.4863500000       11.1618300000 H         0.0000000000         0.0000000000        98.8224316098       56.0569488398      -39.8276256631
atom        10.8896700000        9.4863500000       11.1618300000 H         0.0000000000         0.0000000000       -97.9583450966       57.5522862306      -39.8277179053
atom        10.7264100000        9.2735900000        8.8381600000 H         0.0000000000         0.0000000000       -80.9391754865       79.7197788859       39.8283334209
atom         9.0077000000        9.7341200000        8.8381700000 H         0.0000000000         0.0000000000       109.5131651649       30.2334146464       39.8257191826
atom        10.2658800000       10.9923000000        8.8381700000 H         0.0000000000         0.0000000000       -28.5664790589     -109.9603737592       39.8253732744
atom        10.0000000000       10.0000000000       10.7644200000 C         0.0000000000         0.0000000000         0.0018904708       -0.0013151431       16.9157701234
atom        10.0000000000       10.0000000000        9.2355800000 C         0.0000000000         0.0000000000        -0.0100334920        0.0107877866      -16.9134254924
energy     -1162.1376381093
charge 0
end
begin
comment generated by PY
lattice        20.0000000000         0.0000000000         0.0000000000
lattice         0.0000000000        20.0000000000         0.0000000000
lattice         0.0000000000         0.0000000000        20.0000000000
atom        10.0000000000       11.0273000000       11.1618400000 H         0.0000000000         0.0000000000        -0.4695984385     -113.7723172315      -39.6981020399
atom         9.1103300000        9.4863500000       11.1618300000 H         0.0000000000         0.0000000000        98.7655995871       56.4807606516      -39.6993930049
atom        10.8896700000        9.4863500000       11.1618300000 H         0.0000000000         0.0000000000       -98.2970692339       57.2930024881      -39.6994083076
atom        10.8150100000        9.3746200000        8.8381600000 H         0.0000000000         0.0000000000       -90.5413311414       68.8799874892       39.6988632509
atom         9.0508900000        9.6068700000        8.8381700000 H         0.0000000000         0.0000000000       104.9330567168       43.9708003654       39.6963175555
atom        10.1340900000       11.0185200000        8.8381700000 H         0.0000000000         0.0000000000       -14.3848925340     -112.8638700916       39.6970399775
atom        10.0000000000       10.0000000000       10.7644200000 C         0.0000000000         0.0000000000         0.0012261218        0.0002435152       17.6588436814
atom        10.0000000000       10.0000000000        9.2355800000 C         0.0000000000         0.0000000000        -0.0070253658        0.0118817871      -17.6541611129
energy     -1161.8642919736
charge 0
end
begin
comment generated by PY
lattice        20.0000000000         0.0000000000         0.0000000000
lattice         0.0000000000        20.0000000000         0.0000000000
lattice         0.0000000000         0.0000000000        20.0000000000
atom        10.0000000000       11.0273000000       11.1618400000 H         0.0000000000         0.0000000000        -0.0000015644     -113.8280671114      -39.6511894589
atom         9.1103300000        9.4863500000       11.1618300000 H         0.0000000000         0.0000000000        98.5787441298       56.9134572549      -39.6527724532
atom        10.8896700000        9.4863500000       11.1618300000 H         0.0000000000         0.0000000000       -98.5787902509       56.9135033760      -39.6524726661
atom        10.8896700000        9.4863500000        8.8381600000 H         0.0000000000         0.0000000000       -98.5717557194       56.9091212332       39.6513967910
atom         9.1103300000        9.4863500000        8.8381700000 H         0.0000000000         0.0000000000        98.5780906767       56.9125040146       39.6523343028
atom        10.0000000000       11.0273100000        8.8381700000 H         0.0000000000         0.0000000000         0.0002297809     -113.8307945237       39.6498120937
atom        10.0000000000       10.0000000000       10.7644200000 C         0.0000000000         0.0000000000         0.0007326722       -0.0003618300       17.9262464641
atom        10.0000000000       10.0000000000        9.2355800000 C         0.0000000000         0.0000000000        -0.0072659903        0.0103953650      -17.9233550734
energy     -1161.7685280246
charge 0
end
begin
comment generated by PY
lattice        20.0000000000         0.0000000000         0.0000000000
lattice         0.0000000000        20.0000000000         0.0000000000
lattice         0.0000000000         0.0000000000        20.0000000000
atom        10.0000000000       11.0273000000       11.1618400000 H         0.0000000000         0.0000000000         0.4695954385     -113.7675667586      -39.6947121394
atom         9.1103300000        9.4863500000       11.1618300000 H         0.0000000000         0.0000000000        98.2929413958       57.2905811306      -39.6965334969
atom        10.8896700000        9.4863500000       11.1618300000 H         0.0000000000         0.0000000000       -98.7616331729       56.4784545968      -39.6957878016
atom        10.9491000000        9.6068700000        8.8381600000 H         0.0000000000         0.0000000000      -104.9257087984       43.9685180097       39.6942050202
atom         9.1849800000        9.3746200000        8.8381700000 H         0.0000000000         0.0000000000        90.5428298641       68.8799943956       39.6959026786
atom         9.8659100000       11.0185200000        8.8381700000 H         0.0000000000         0.0000000000        14.3849155946     -112.8604110094       39.6943418933
atom        10.0000000000       10.0000000000       10.7644200000 C         0.0000000000         0.0000000000         0.0003455255        0.0002842793       17.6691670491
atom        10.0000000000       10.0000000000        9.2355800000 C         0.0000000000         0.0000000000        -0.0032386020        0.0106235791      -17.6665601428
energy     -1161.8644312818
charge 0
end
begin
comment generated by PY
lattice        20.0000000000         0.0000000000         0.0000000000
lattice         0.0000000000        20.0000000000         0.0000000000
lattice         0.0000000000         0.0000000000        20.0000000000
atom        10.0000000000       11.0273000000       11.1618400000 H         0.0000000000         0.0000000000         0.8635857811     -113.6061828945      -39.8224682839
atom         9.1103300000        9.4863500000       11.1618300000 H         0.0000000000         0.0000000000        97.9536638054       57.5495881465      -39.8242357626
atom        10.8896700000        9.4863500000       11.1618300000 H         0.0000000000         0.0000000000       -98.8178656213       56.0543429979      -39.8235900672
atom        10.9922900000        9.7341200000        8.8381600000 H         0.0000000000         0.0000000000      -109.5046180980       30.2317777732       39.8229378913
atom         9.2735800000        9.2735900000        8.8381700000 H         0.0000000000         0.0000000000        80.9402362717       79.7196629446       39.8248271533
atom         9.7341100000       10.9923000000        8.8381700000 H         0.0000000000         0.0000000000        28.5665564241     -109.9549691945       39.8215064344
atom        10.0000000000       10.0000000000       10.7644200000 C         0.0000000000         0.0000000000        -0.0004606072       -0.0013528976       16.9287993330
atom        10.0000000000       10.0000000000        9.2355800000 C         0.0000000000         0.0000000000        -0.0007479121        0.0069232396      -16.9279536377
energy     -1162.1376369562
charge 0
end
begin
comment generated by PY
lattice        20.0000000000         0.0000000000         0.0000000000
lattice         0.0000000000        20.0000000000         0.0000000000
lattice         0.0000000000         0.0000000000        20.0000000000
atom        10.0000000000       11.0273000000       11.1618400000 H         0.0000000000         0.0000000000         1.1231732016     -113.3657663935      -40.0113854479
atom         9.1103300000        9.4863500000       11.1618300000 H         0.0000000000         0.0000000000        97.6183058695       57.6547139471      -40.0134835320
atom        10.8896700000        9.4863500000       11.1618300000 H         0.0000000000         0.0000000000       -98.7379642284       55.7111377823      -40.0126686550
atom        11.0185100000        9.8659100000        8.8381600000 H         0.0000000000         0.0000000000      -112.2492273733       15.9077086372       40.0115623874
atom         9.3746100000        9.1849900000        8.8381700000 H         0.0000000000         0.0000000000        69.8975694560       89.2547757445       40.0130835320
atom         9.6068700000       10.9491100000        8.8381700000 H         0.0000000000         0.0000000000        42.3458617490     -105.1663893721       40.0096932057
atom        10.0000000000       10.0000000000       10.7644200000 C         0.0000000000         0.0000000000         0.0010570533       -0.0001595021       15.8248814389
atom        10.0000000000       10.0000000000        9.2355800000 C         0.0000000000         0.0000000000         0.0010507563        0.0037496332      -15.8216598684
energy     -1162.5424207553
charge 0
end
begin
comment generated by PY
lattice        20.0000000000         0.0000000000         0.0000000000
lattice         0.0000000000        20.0000000000         0.0000000000
lattice         0.0000000000         0.0000000000        20.0000000000
atom        10.0000000000       11.0273000000       11.1618400000 H         0.0000000000         0.0000000000         1.2066330920     -113.0871490896      -40.2321514517
atom         9.1103300000        9.4863500000       11.1618300000 H         0.0000000000         0.0000000000        97.3334313993       57.5881952170      -40.2346415652
atom        10.8896700000        9.4863500000       11.1618300000 H         0.0000000000         0.0000000000       -98.5394388566       55.4970939389      -40.2335960827
atom        11.0273000000       10.0000000000        8.8381600000 H         0.0000000000         0.0000000000      -113.0858346384        1.2066100315       40.2315518775
atom         9.4863500000        9.1103300000        8.8381700000 H         0.0000000000         0.0000000000        57.5875956428       97.3323244930       40.2340419909
atom         9.4863500000       10.8896700000        8.8381700000 H         0.0000000000         0.0000000000        55.4964943647      -98.5384472530       40.2330195690
atom        10.0000000000       10.0000000000       10.7644200000 C         0.0000000000         0.0000000000         0.0006619628        0.0002293462       14.5336500453
atom        10.0000000000       10.0000000000        9.2355800000 C         0.0000000000         0.0000000000        -0.0000012593        0.0006619628      -14.5318743831
energy     -1163.0189507335
charge 0
end
begin
comment generated by PY
lattice        20.0000000000         0.0000000000         0.0000000000
lattice         0.0000000000        20.0000000000         0.0000000000
lattice         0.0000000000         0.0000000000        20.0000000000
atom        10.0000000000       11.0273000000       11.1618400000 H         0.0000000000         0.0000000000         1.1085463282     -112.8111900164      -40.4500430706
atom         9.1103300000        9.4863500000       11.1618300000 H         0.0000000000         0.0000000000        97.1455205730       57.3641364023      -40.4527176684
atom        10.8896700000        9.4863500000       11.1618300000 H         0.0000000000         0.0000000000       -98.2518897885       55.4441641393      -40.4513723988
atom        11.0185100000       10.1340900000        8.8381600000 H         0.0000000000         0.0000000000      -111.9903687015      -13.6243475500       40.4501508284
atom         9.6068700000        9.0508900000        8.8381700000 H         0.0000000000         0.0000000000        44.1946329264      103.8001474593       40.4493885531
atom         9.3746100000       10.8150100000        8.8381700000 H         0.0000000000         0.0000000000        67.7913695738      -90.1705729227       40.4510262777
atom        10.0000000000       10.0000000000       10.7644200000 C         0.0000000000         0.0000000000         0.0010339209        0.0005951910       13.2553403164
atom        10.0000000000       10.0000000000        9.2355800000 C         0.0000000000         0.0000000000         0.0011660240       -0.0024026098      -13.2517497772
energy     -1163.4912475163
charge 0
end
begin
comment generated by PY
lattice        20.0000000000         0.0000000000         0.0000000000
lattice         0.0000000000        20.0000000000         0.0000000000
lattice         0.0000000000         0.0000000000        20.0000000000
atom        10.0000000000       11.0273000000       11.1618400000 H         0.0000000000         0.0000000000         0.8436484624     -112.5804274886      -40.6340034940
atom         9.1103300000        9.4863500000       11.1618300000 H         0.0000000000         0.0000000000        97.0771253292       57.0204546730      -40.6361860625
atom        10.8896700000        9.4863500000       11.1618300000 H         0.0000000000         0.0000000000       -97.9220043217       55.5590820635      -40.6350560956
atom        10.9922900000       10.2658800000        8.8381600000 H         0.0000000000         0.0000000000      -108.9570101454      -28.3172611864       40.6339043455
atom         9.7341100000        9.0077000000        8.8381700000 H         0.0000000000         0.0000000000        29.9496097836      108.5227049328       40.6338104003
atom         9.2735800000       10.7264100000        8.8381700000 H         0.0000000000         0.0000000000        79.0098745339      -80.2003167598       40.6355552441
atom        10.0000000000       10.0000000000       10.7644200000 C         0.0000000000         0.0000000000        -0.0003453960        0.0013274445       12.1811935897
atom        10.0000000000       10.0000000000        9.2355800000 C         0.0000000000         0.0000000000        -0.0008402243       -0.0055300390      -12.1792179275
energy     -1163.8907520678
charge 0
end
begin
comment generated by PY
lattice        20.0000000000         0.0000000000         0.0000000000
lattice         0.0000000000        20.0000000000         0.0000000000
lattice         0.0000000000         0.0000000000        20.0000000000
atom        10.0000000000       11.0273000000       11.1618400000 H         0.0000000000         0.0000000000         0.4560278502     -112.4313034396      -40.7557265972
atom         9.1103300000        9.4863500000       11.1618300000 H         0.0000000000         0.0000000000        97.1405214245       56.6074418912      -40.7573326520
atom        10.8896700000        9.4863500000       11.1618300000 H         0.0000000000         0.0000000000       -97.5952475446       55.8197110756      -40.7565485933
atom        10.9491000000       10.3931300000        8.8381600000 H         0.0000000000         0.0000000000      -104.0409433357      -42.6022224309       40.7539203295
atom         9.8659100000        8.9814800000        8.8381700000 H         0.0000000000         0.0000000000        15.1247737769      111.4117339052       40.7556561383
atom         9.1849800000       10.6253800000        8.8381700000 H         0.0000000000         0.0000000000        88.9179525530      -68.7969135087       40.7557102301
atom        10.0000000000       10.0000000000       10.7644200000 C         0.0000000000         0.0000000000         0.0004376816       -0.0002636573       11.4680142597
atom        10.0000000000       10.0000000000        9.2355800000 C         0.0000000000         0.0000000000        -0.0034000598       -0.0089076009      -11.4636931150
energy     -1164.1548153158
charge 0
end
begin
comment generated by PY
lattice        20.0000000000         0.0000000000         0.0000000000
lattice         0.0000000000        20.0000000000         0.0000000000
lattice         0.0000000000         0.0000000000        20.0000000000
atom        10.0000000000       11.0273000000       11.1618400000 H         0.0000000000         0.0000000000         0.0000164146     -112.3809497280      -40.8007794573
atom         9.1103300000        9.4863500000       11.1618300000 H         0.0000000000         0.0000000000        97.3242947390       56.1897870329      -40.8021626645
atom        10.8896700000        9.4863500000       11.1618300000 H         0.0000000000         0.0000000000       -97.3242716785       56.1897870329      -40.8016475746
atom        10.8896700000       10.5136500000        8.8381600000 H         0.0000000000         0.0000000000       -97.3174216314      -56.1854740718       40.8002949730
atom        10.0000000000        8.9726900000        8.8381700000 H         0.0000000000         0.0000000000         0.0002528305      112.3839077458       40.8002553324
atom         9.1103300000       10.5136500000        8.8381700000 H         0.0000000000         0.0000000000        97.3238488308      -56.1888799137       40.8014016664
atom        10.0000000000       10.0000000000       10.7644200000 C         0.0000000000         0.0000000000         0.0007556868        0.0002209882       11.2127105069
atom        10.0000000000       10.0000000000        9.2355800000 C         0.0000000000         0.0000000000        -0.0074504047       -0.0087025133      -11.2100727822
energy     -1164.2475265142
charge 0
end
begin
comment generated by PY
lattice        20.0000000000         0.0000000000         0.0000000000
lattice         0.0000000000        20.0000000000         0.0000000000
lattice         0.0000000000         0.0000000000        20.0000000000
atom        10.0000000000       11.0273000000       11.1618400000 H         0.0000000000         0.0000000000        -0.4560400502     -112.4374144849      -40.7587936501
atom         9.1103300000        9.4863500000       11.1618300000 H         0.0000000000         0.0000000000        97.6006206522       55.8227320073      -40.7600999177
atom        10.8896700000        9.4863500000       11.1618300000 H         0.0000000000         0.0000000000       -97.1458022900       56.6105089441      -40.7600768572
atom        10.8150100000       10.6253800000        8.8381600000 H         0.0000000000         0.0000000000       -88.9194517015      -68.7992357178       40.7596701638
atom        10.1340900000        8.9814800000        8.8381700000 H         0.0000000000         0.0000000000       -15.1252349879      111.4190902200       40.7593227654
atom         9.0508900000       10.3931300000        8.8381700000 H         0.0000000000         0.0000000000       104.0521193050      -42.6059037222       40.7572167106
atom        10.0000000000       10.0000000000       10.7644200000 C         0.0000000000         0.0000000000         0.0009953992       -0.0001767311       11.4618340328
atom        10.0000000000       10.0000000000        9.2355800000 C         0.0000000000         0.0000000000        -0.0073021354       -0.0102580560      -11.4589501871
energy     -1164.1547024433
charge 0
end
begin
comment generated by PY
lattice        20.0000000000         0.0000000000         0.0000000000
lattice         0.0000000000        20.0000000000         0.0000000000
lattice         0.0000000000         0.0000000000        20.0000000000