lammpslib autogenerated data file

108 atoms
3 atom types

  0.00000000e+00   1.07910000e+01 xlo xhi
  0.00000000e+00   1.07910000e+01 ylo yhi
  0.00000000e+00   1.07910000e+01 zlo zhi
  0.00000000e+00   0.00000000e+00   0.00000000e+00 xy xz yz

Masses

1 15.9990 #O
2 28.0855 #Si
3 63.5460 #Cu

Atoms # full

1 0 3   0.00000000e+00   0.00000000e+00   0.00000000e+00   0.00000000e+00
2 0 3   0.00000000e+00   0.00000000e+00   1.79850000e+00   1.79850000e+00
3 0 3   0.00000000e+00   1.79850000e+00   0.00000000e+00   1.79850000e+00
4 0 3   0.00000000e+00   1.79850000e+00   1.79850000e+00   0.00000000e+00
5 0 3   0.00000000e+00   0.00000000e+00   0.00000000e+00   3.59700000e+00
6 0 3   0.00000000e+00   0.00000000e+00   1.79850000e+00   5.39550000e+00
7 0 3   0.00000000e+00   1.79850000e+00   0.00000000e+00   5.39550000e+00
8 0 3   0.00000000e+00   1.79850000e+00   1.79850000e+00   3.59700000e+00
9 0 3   0.00000000e+00   0.00000000e+00   0.00000000e+00   7.19400000e+00
10 0 3   0.00000000e+00   0.00000000e+00   1.79850000e+00   8.99250000e+00
11 0 3   0.00000000e+00   1.79850000e+00   0.00000000e+00   8.99250000e+00
12 0 3   0.00000000e+00   1.79850000e+00   1.79850000e+00   7.19400000e+00
13 0 3   0.00000000e+00   0.00000000e+00   3.59700000e+00   0.00000000e+00
14 0 3   0.00000000e+00   0.00000000e+00   5.39550000e+00   1.79850000e+00
15 0 3   0.00000000e+00   1.79850000e+00   3.59700000e+00   1.79850000e+00
16 0 3   0.00000000e+00   1.79850000e+00   5.39550000e+00   0.00000000e+00
17 0 3   0.00000000e+00   0.00000000e+00   3.59700000e+00   3.59700000e+00
18 0 3   0.00000000e+00   0.00000000e+00   5.39550000e+00   5.39550000e+00
19 0 3   0.00000000e+00   1.79850000e+00   3.59700000e+00   5.39550000e+00
20 0 3   0.00000000e+00   1.79850000e+00   5.39550000e+00   3.59700000e+00
21 0 3   0.00000000e+00   0.00000000e+00   3.59700000e+00   7.19400000e+00
22 0 3   0.00000000e+00   0.00000000e+00   5.39550000e+00   8.99250000e+00
23 0 3   0.00000000e+00   1.79850000e+00   3.59700000e+00   8.99250000e+00
24 0 3   0.00000000e+00   1.79850000e+00   5.39550000e+00   7.19400000e+00
25 0 3   0.00000000e+00   0.00000000e+00   7.19400000e+00   0.00000000e+00
26 0 3   0.00000000e+00   0.00000000e+00   8.99250000e+00   1.79850000e+00
27 0 3   0.00000000e+00   1.79850000e+00   7.19400000e+00   1.79850000e+00
28 0 3   0.00000000e+00   1.79850000e+00   8.99250000e+00   0.00000000e+00
29 0 3   0.00000000e+00   0.00000000e+00   7.19400000e+00   3.59700000e+00
30 0 3   0.00000000e+00   0.00000000e+00   8.99250000e+00   5.39550000e+00
31 0 3   0.00000000e+00   1.79850000e+00   7.19400000e+00   5.39550000e+00
32 0 3   0.00000000e+00   1.79850000e+00   8.99250000e+00   3.59700000e+00
33 0 3   0.00000000e+00   0.00000000e+00   7.19400000e+00   7.19400000e+00
34 0 3   0.00000000e+00   0.00000000e+00   8.99250000e+00   8.99250000e+00
35 0 3   0.00000000e+00   1.79850000e+00   7.19400000e+00   8.99250000e+00
36 0 3   0.00000000e+00   1.79850000e+00   8.99250000e+00   7.19400000e+00
37 0 3   0.00000000e+00   3.59700000e+00   0.00000000e+00   0.00000000e+00
38 0 3   0.00000000e+00   3.59700000e+00   1.79850000e+00   1.79850000e+00
39 0 3   0.00000000e+00   5.39550000e+00   0.00000000e+00   1.79850000e+00
40 0 3   0.00000000e+00   5.39550000e+00   1.79850000e+00   0.00000000e+00
41 0 3   0.00000000e+00   3.59700000e+00   0.00000000e+00   3.59700000e+00
42 0 3   0.00000000e+00   3.59700000e+00   1.79850000e+00   5.39550000e+00
43 0 3   0.00000000e+00   5.39550000e+00   0.00000000e+00   5.39550000e+00
44 0 3   0.00000000e+00   5.39550000e+00   1.79850000e+00   3.59700000e+00
45 0 3   0.00000000e+00   3.59700000e+00   0.00000000e+00   7.19400000e+00
46 0 3   0.00000000e+00   3.59700000e+00   1.79850000e+00   8.99250000e+00
47 0 3   0.00000000e+00   5.39550000e+00   0.00000000e+00   8.99250000e+00
48 0 3   0.00000000e+00   5.39550000e+00   1.79850000e+00   7.19400000e+00
49 0 3   0.00000000e+00   3.59700000e+00   3.59700000e+00   0.00000000e+00
50 0 3   0.00000000e+00   3.59700000e+00   5.39550000e+00   1.79850000e+00
51 0 3   0.00000000e+00   5.39550000e+00   3.59700000e+00   1.79850000e+00
52 0 3   0.00000000e+00   5.39550000e+00   5.39550000e+00   0.00000000e+00
53 0 3   0.00000000e+00   3.59700000e+00   3.59700000e+00   3.59700000e+00
54 0 3   0.00000000e+00   3.59700000e+00   5.39550000e+00   5.39550000e+00
55 0 3   0.00000000e+00   5.39550000e+00   3.59700000e+00   5.39550000e+00
56 0 3   0.00000000e+00   5.39550000e+00   5.39550000e+00   3.59700000e+00
57 0 3   0.00000000e+00   3.59700000e+00   3.59700000e+00   7.19400000e+00
58 0 3   0.00000000e+00   3.59700000e+00   5.39550000e+00   8.99250000e+00
59 0 3   0.00000000e+00   5.39550000e+00   3.59700000e+00   8.99250000e+00
60 0 3   0.00000000e+00   5.39550000e+00   5.39550000e+00   7.19400000e+00
61 0 3   0.00000000e+00   3.59700000e+00   7.19400000e+00   0.00000000e+00
62 0 3   0.00000000e+00   3.59700000e+00   8.99250000e+00   1.79850000e+00
63 0 3   0.00000000e+00   5.39550000e+00   7.19400000e+00   1.79850000e+00
64 0 3   0.00000000e+00   5.39550000e+00   8.99250000e+00   0.00000000e+00
65 0 3   0.00000000e+00   3.59700000e+00   7.19400000e+00   3.59700000e+00
66 0 3   0.00000000e+00   3.59700000e+00   8.99250000e+00   5.39550000e+00
67 0 3   0.00000000e+00   5.39550000e+00   7.19400000e+00   5.39550000e+00
68 0 3   0.00000000e+00   5.39550000e+00   8.99250000e+00   3.59700000e+00
69 0 3   0.00000000e+00   3.59700000e+00   7.19400000e+00   7.19400000e+00
70 0 3   0.00000000e+00   3.59700000e+00   8.99250000e+00   8.99250000e+00
71 0 3   0.00000000e+00   5.39550000e+00   7.19400000e+00   8.99250000e+00
72 0 3   0.00000000e+00   5.39550000e+00   8.99250000e+00   7.19400000e+00
73 0 3   0.00000000e+00   7.19400000e+00   0.00000000e+00   0.00000000e+00
74 0 3   0.00000000e+00   7.19400000e+00   1.79850000e+00   1.79850000e+00
75 0 3   0.00000000e+00   8.99250000e+00   0.00000000e+00   1.79850000e+00
76 0 3   0.00000000e+00   8.99250000e+00   1.79850000e+00   0.00000000e+00
77 0 3   0.00000000e+00   7.19400000e+00   0.00000000e+00   3.59700000e+00
78 0 3   0.00000000e+00   7.19400000e+00   1.79850000e+00   5.39550000e+00
79 0 3   0.00000000e+00   8.99250000e+00   0.00000000e+00   5.39550000e+00
80 0 3   0.00000000e+00   8.99250000e+00   1.79850000e+00   3.59700000e+00
81 0 3   0.00000000e+00   7.19400000e+00   0.00000000e+00   7.19400000e+00
82 0 3   0.00000000e+00   7.19400000e+00   1.79850000e+00   8.99250000e+00
83 0 3   0.00000000e+00   8.99250000e+00   0.00000000e+00   8.99250000e+00
84 0 3   0.00000000e+00   8.99250000e+00   1.79850000e+00   7.19400000e+00
85 0 3   0.00000000e+00   7.19400000e+00   3.59700000e+00   0.00000000e+00
86 0 3   0.00000000e+00   7.19400000e+00   5.39550000e+00   1.79850000e+00
87 0 3   0.00000000e+00   8.99250000e+00   3.59700000e+00   1.79850000e+00
88 0 3   0.00000000e+00   8.99250000e+00   5.39550000e+00   0.00000000e+00
89 0 3   0.00000000e+00   7.19400000e+00   3.59700000e+00   3.59700000e+00
90 0 3   0.00000000e+00   7.19400000e+00   5.39550000e+00   5.39550000e+00
91 0 3   0.00000000e+00   8.99250000e+00   3.59700000e+00   5.39550000e+00
92 0 3   0.00000000e+00   8.99250000e+00   5.39550000e+00   3.59700000e+00
93 0 3   0.00000000e+00   7.19400000e+00   3.59700000e+00   7.19400000e+00
94 0 3   0.00000000e+00   7.19400000e+00   5.39550000e+00   8.99250000e+00
95 0 3   0.00000000e+00   8.99250000e+00   3.59700000e+00   8.99250000e+00
96 0 3   0.00000000e+00   8.99250000e+00   5.39550000e+00   7.19400000e+00
97 0 3   0.00000000e+00   7.19400000e+00   7.19400000e+00   0.00000000e+00
98 0 3   0.00000000e+00   7.19400000e+00   8.99250000e+00   1.79850000e+00
99 0 3   0.00000000e+00   8.99250000e+00   7.19400000e+00   1.79850000e+00
100 0 3   0.00000000e+00   8.99250000e+00   8.99250000e+00   0.00000000e+00
101 0 3   0.00000000e+00   7.19400000e+00   7.19400000e+00   3.59700000e+00
102 0 3   0.00000000e+00   7.19400000e+00   8.99250000e+00   5.39550000e+00
103 0 3   0.00000000e+00   8.99250000e+00   7.19400000e+00   5.39550000e+00
104 0 3   0.00000000e+00   8.99250000e+00   8.99250000e+00   3.59700000e+00
105 0 3   0.00000000e+00   7.19400000e+00   7.19400000e+00   7.19400000e+00
106 0 3   0.00000000e+00   7.19400000e+00   8.99250000e+00   8.99250000e+00
107 0 3   0.00000000e+00   8.99250000e+00   7.19400000e+00   8.99250000e+00
108 0 3   0.00000000e+00   8.99250000e+00   8.99250000e+00   7.19400000e+00
