begin
comment generated by PY
lattice        13.3100000000         0.0000000000         0.0000000000
lattice         0.0000000000        13.3100000000         0.0000000000
lattice         0.0000000000         0.0000000000        26.6200000000
atom        13.2484000000        3.4085100000        1.0609000000 C         0.0000000000         0.0000000000        -0.3115249431        4.2147763602       -0.7650336803
atom         1.1706500000        2.9915400000        1.8760600000 C         0.0000000000         0.0000000000         3.1351276233        1.7047279512       -8.0707536538
atom        12.7864000000        2.2295900000        0.1805800000 C         0.0000000000         0.0000000000         2.2813338937       -0.8743176173        8.3860144057
atom        12.0823000000        3.8405500000        1.9734200000 C         0.0000000000         0.0000000000        -4.3579823633       -5.2693582813       -6.8255532428
atom         0.3276000000        4.6177600000        0.1823000000 C         0.0000000000         0.0000000000        -4.9109281836        1.0547202844        9.7560185025
atom         6.6548800000        3.2587800000        4.4022100000 C         0.0000000000         0.0000000000         1.1865343769       -3.9471356399        1.4551436401
atom         5.4737700000        2.7764700000        5.2626200000 C         0.0000000000         0.0000000000        -6.3868724380        5.2722869709       -8.9667481863
atom         7.0740800000        2.1165300000        3.4511000000 C         0.0000000000         0.0000000000        -5.3249111415       -1.3384572672        9.4517576321
atom         7.8590200000        3.6291300000        5.2920900000 C         0.0000000000         0.0000000000         0.1269944379       -0.4943950888       -6.1723401598
atom         6.2090200000        4.4886700000        3.5905200000 C         0.0000000000         0.0000000000         3.6276778683        3.1556053900       10.0292859965
atom         0.1634900000       10.1029000000        5.5097100000 C         0.0000000000         0.0000000000         0.4805818206       -1.9603771865        1.1053612479
atom        12.1911000000       10.4580000000        4.7294700000 C         0.0000000000         0.0000000000        -1.3659454404       -0.2845210414        7.1924004406
atom         0.5874400000       11.2941000000        6.3891900000 C         0.0000000000         0.0000000000        -2.3787185880        4.0105060259      -11.1372300257
atom         1.3066100000        9.7835400000        4.5316300000 C         0.0000000000         0.0000000000        -1.5911547523        5.3425294001       10.2380761982
atom        13.1885000000        8.8730000000        6.3962200000 C         0.0000000000         0.0000000000         6.3779480059        0.6953216437       -7.5066004072
atom         6.6746600000       10.0954000000        2.2592400000 C         0.0000000000         0.0000000000        -1.7755007731        2.1062120921        1.8901116967
atom         7.8341500000       10.4838000000        1.3191700000 C         0.0000000000         0.0000000000        -0.7060217379       -2.5762321817        3.2321664094
atom         6.2909400000       11.3446000000        3.0803100000 C         0.0000000000         0.0000000000         4.0017891387        1.6810908895       -9.5616411433
atom         5.4384000000        9.5858300000        1.4837700000 C         0.0000000000         0.0000000000        -3.7206118768        3.8506503071        5.3170013735
atom         7.1321800000        8.9459100000        3.1815500000 C         0.0000000000         0.0000000000        -0.0539386218        1.6351773384       -9.1051345349
atom        13.3063000000        3.3005500000        7.7410400000 C         0.0000000000         0.0000000000         0.8494122255        1.5173379381       -2.6897592596
atom         1.2036900000        2.7747700000        8.5471900000 C         0.0000000000         0.0000000000         6.4701901979        5.3316678820       -6.4353457099
atom        12.8328000000        2.1894200000        6.7798300000 C         0.0000000000         0.0000000000         4.9680722215       -2.0451708215        9.6212987810
atom        12.1245000000        3.6702600000        8.6558500000 C         0.0000000000         0.0000000000        -1.1447256033       -2.2058105990      -11.4082837071
atom         0.4284800000        4.5447600000        6.9338500000 C         0.0000000000         0.0000000000        -6.0509724956        0.7162606213        8.6498731960
atom         6.6758100000        3.4562000000       11.0585000000 C         0.0000000000         0.0000000000        -3.1478801064       -2.2187475664        0.4572676065
atom         5.4785800000        3.1483000000       11.9854000000 C         0.0000000000         0.0000000000         3.5746616684        2.0990863828       -7.5116045462
atom         7.0458800000        2.1878200000       10.2651000000 C         0.0000000000         0.0000000000        -4.2265141791       -2.4131941073       11.9496070111
atom         7.9018800000        3.8991300000       11.8743000000 C         0.0000000000         0.0000000000         4.9412528042        0.6901791415       -7.3159357963
atom         6.2677500000        4.5818000000       10.0840000000 C         0.0000000000         0.0000000000         3.8198875360        0.8389196761        9.1000612143
atom        13.2900000000        9.9134800000       12.2111000000 C         0.0000000000         0.0000000000        -3.9261966623       -0.8371440139       -1.2504582160
atom        12.1436000000       10.2737000000       11.2451000000 C         0.0000000000         0.0000000000         3.8927127466       -1.1013025914        9.3875801269
atom         0.3603300000       11.1353000000       13.0647000000 C         0.0000000000         0.0000000000        -6.7169841828        2.7071930339      -10.6945366855
atom         1.2233100000        9.4810800000       11.4130000000 C         0.0000000000         0.0000000000         1.0683260078        1.7570292741        6.7795243890
atom        12.8071000000        8.7677200000       13.1303000000 C         0.0000000000         0.0000000000         8.1695450415       -2.6108230037       -9.7113502210
atom         6.8782900000        9.9636600000        8.9335300000 C         0.0000000000         0.0000000000         0.4093708483        3.4056739726        5.0665868826
atom         8.0936600000       10.4764000000        8.1197600000 C         0.0000000000         0.0000000000         2.6228144887       -5.8155012399        7.2733660247
atom         6.3626700000       11.1467000000        9.7991700000 C         0.0000000000         0.0000000000         3.8536712388       -5.9841430275       -8.2830951799
atom         5.7073700000        9.5112400000        8.0380900000 C         0.0000000000         0.0000000000         1.2609507653        3.2638054812        5.7664975754
atom         7.3436700000        8.7930800000        9.8316100000 C         0.0000000000         0.0000000000        -7.7860020070        3.8524720903       -8.1998004805
atom         0.1102300000        3.2741900000       14.3810000000 C         0.0000000000         0.0000000000         0.0106770337       -3.0239296608       -2.9035766607
atom         1.3288300000        2.7781800000       15.1942000000 C         0.0000000000         0.0000000000         4.2400507208        5.5390513903       -6.5591808527
atom        12.9041000000        2.0794400000       13.5418000000 C         0.0000000000         0.0000000000         2.7411842816        2.6252589068        8.0375695252
atom        12.2554000000        3.7473800000       15.2754000000 C         0.0000000000         0.0000000000         0.3745263603       -1.1615598034       -6.0949950818
atom         0.5595300000        4.4310600000       13.4677000000 C         0.0000000000         0.0000000000        -6.2358489090        2.6310240438        9.3425428767
atom         6.6700200000        3.2167400000       17.7094000000 C         0.0000000000         0.0000000000        -0.5187239670       -2.3295996207       -0.2768880000
atom         5.4451600000        2.7309200000       18.5171000000 C         0.0000000000         0.0000000000        -4.5067459585        3.7197586365       -7.4623241551
atom         7.1637100000        2.0768000000       16.7908000000 C         0.0000000000         0.0000000000        -1.9463563733       -1.7800437011       11.9965582868
atom         7.8300000000        3.6036700000       18.6399000000 C         0.0000000000         0.0000000000         1.4469802061       -2.7775046448       -9.7170922975
atom         6.2573200000        4.4326400000       16.8623000000 C         0.0000000000         0.0000000000         7.5288538361        2.5317483846        8.9940979962
atom        13.2010000000       10.0632000000       18.8544000000 C         0.0000000000         0.0000000000        -1.0243264821        0.9547758693        2.1175117607
atom        11.9676000000       10.5297000000       18.0564000000 C         0.0000000000         0.0000000000        -8.3094764468       -5.3988201978        8.3067091811
atom         0.2613600000       11.1815000000       19.8515000000 C         0.0000000000         0.0000000000        -1.8312611782       -2.2213764689       -7.0390247358
atom         1.0926400000        9.8074000000       17.9222000000 C         0.0000000000         0.0000000000        -2.1571528427        3.6074998888        7.9029420459
atom        12.8566000000        8.7655500000       19.6074000000 C         0.0000000000         0.0000000000         1.3332917044       -0.5455203238       -8.4593238878
atom         6.4480900000        9.9357000000       15.5766000000 C         0.0000000000         0.0000000000        -0.0185868017       -1.6148148745        1.1006799566
atom         7.6115000000       10.3542000000       14.6515000000 C         0.0000000000         0.0000000000        -0.0163499285       -0.4232994193        4.3575903340
atom         6.0546500000       11.1325000000       16.4614000000 C         0.0000000000         0.0000000000         5.9730278433        3.3925294602      -10.1316517691
atom         5.2076700000        9.4546500000       14.7858000000 C         0.0000000000         0.0000000000        -3.9012682099        4.4196001476        5.5005172146
atom         6.9451600000        8.7471800000       16.4347000000 C         0.0000000000         0.0000000000        -1.7135832017        2.2207077130       -8.2705041207
atom        13.2875000000        3.3415700000       21.1019000000 C         0.0000000000         0.0000000000        -1.9354487341        0.3023468450       -1.6771705964
atom         1.1669500000        3.0228300000       22.0241000000 C         0.0000000000         0.0000000000         2.0809607921        2.3194529796       -5.6149436538
atom        12.9054000000        2.0639400000       20.3360000000 C         0.0000000000         0.0000000000         0.4198172766       -0.3606900315        8.8282234744
atom        12.0681000000        3.8278600000       21.9020000000 C         0.0000000000         0.0000000000        -5.4840750438       -4.8668364158       -8.9768948274
atom         0.3732800000        4.4643500000       20.1259000000 C         0.0000000000         0.0000000000        -2.0448479739       -0.8720346231        6.6361569620
atom         6.5964200000        3.4996500000       24.3444000000 C         0.0000000000         0.0000000000         0.0589658213        1.7503186547        0.3248770004
atom         5.4041100000        3.1312800000       25.2429000000 C         0.0000000000         0.0000000000        -1.9618991827        2.2067791420       -7.2083352793
atom         7.0057300000        2.2648800000       23.5258000000 C         0.0000000000         0.0000000000        -3.9836866085       -3.1077086318        8.8377474807
atom         7.7959600000        3.9715100000       25.1869000000 C         0.0000000000         0.0000000000         8.2018298087       -5.9185818895       -8.0032323692
atom         6.1759200000        4.6477500000       23.4113000000 C         0.0000000000         0.0000000000         3.2888492364        4.1761730028        9.0880927899
atom         0.0463800000        9.9293700000       25.5818000000 C         0.0000000000         0.0000000000         1.8536068492       -7.0223750201        1.7694819701
atom        12.1762000000       10.3623000000       24.6872000000 C         0.0000000000         0.0000000000         0.3552938632       -2.4751808603        6.6546284609
atom         0.4443000000       11.0902000000       26.5083000000 C         0.0000000000         0.0000000000        -6.8990010882        3.4834110800       -7.8606951220
atom         1.2782800000        9.5000100000       24.7439000000 C         0.0000000000         0.0000000000         2.8808389604        6.6328131825        7.5729686644
atom        12.9047000000        8.6968300000       26.4047000000 C         0.0000000000         0.0000000000         1.9856746077        1.6643489317      -10.5597016613
atom         6.6599700000        9.9191600000       22.1769000000 C         0.0000000000         0.0000000000         0.4577518780       -1.2864787919        1.1043465837
atom         7.8188500000       10.3120000000       21.2471000000 C         0.0000000000         0.0000000000         1.9606769736       -3.7898857630       11.5360391430
atom         6.3013100000       11.1125000000       23.0807000000 C         0.0000000000         0.0000000000         4.6894085594        0.8006622270       -7.7210404432
atom         5.4186400000        9.5017500000       21.3542000000 C         0.0000000000         0.0000000000        -3.1922716613        5.0174679154        6.3744428026
atom         7.1142700000        8.7178900000       23.0329000000 C         0.0000000000         0.0000000000        -0.8051129127       -1.9555805925      -10.7948961905
atom         1.9123500000        2.5252400000        1.2134400000 H         0.0000000000         0.0000000000         0.3109945505       -0.4716343279       -0.3151223886
atom        12.3063000000        1.4507600000        0.7868000000 H         0.0000000000         0.0000000000        -0.2233414075       -0.5382101301        1.4782272487
atom         1.6254200000        3.8695500000        2.3551700000 H         0.0000000000         0.0000000000         0.0096162485        0.6761352677       -0.2880031841
atom         0.3443300000        1.8836900000        6.1200500000 H         0.0000000000         0.0000000000         1.1831905974       -0.8042596725        1.4268944688
atom        11.3454000000        4.4081800000        1.3917800000 H         0.0000000000         0.0000000000        -1.7505723207       -0.1530989783       -0.1269483168
atom        11.6006000000        2.9534200000        2.3982400000 H         0.0000000000         0.0000000000        -2.2840550384       -2.8581704417       -0.7559478244
atom         0.7680000000        5.4079200000        0.8036900000 H         0.0000000000         0.0000000000         0.9327299854       -0.5665746041        0.6434123501
atom        12.8656000000        5.0124600000        6.4613900000 H         0.0000000000         0.0000000000        -1.2757556371       -0.4273580758       -0.2118572546
atom         4.7316300000        2.2756000000        4.6308100000 H         0.0000000000         0.0000000000        -0.7479458142       -1.0922859171       -0.8854097409
atom         7.5718600000        1.3156500000        4.0112300000 H         0.0000000000         0.0000000000         1.4328440902       -0.2197900831        0.7896162245
atom         4.9942300000        3.6303700000        5.7542400000 H         0.0000000000         0.0000000000        -0.1010743819        2.7768820100        0.6399302073
atom         6.1885200000        1.7090400000        2.9486500000 H         0.0000000000         0.0000000000        -0.4441000336       -0.8838646842       -0.5346818662
atom         8.6272800000        4.1365600000        4.6970800000 H         0.0000000000         0.0000000000         1.1300590948       -0.0419240763       -0.6281693278
atom         8.2852700000        2.7180700000        5.7340600000 H         0.0000000000         0.0000000000         0.4718418729        0.7698072137       -0.5854150718
atom         5.7525700000        5.2340600000        4.2539200000 H         0.0000000000         0.0000000000        -0.5762139132        1.1289983096        0.6595777942
atom         7.0693300000        4.9352800000        3.0752800000 H         0.0000000000         0.0000000000         0.7703606669        0.2313203571        0.0313854058
atom        11.4620000000       10.9153000000        5.4093200000 H         0.0000000000         0.0000000000        -1.4410075242        0.0134212389        0.1994045587
atom         0.9675900000       12.1175000000        5.7711200000 H         0.0000000000         0.0000000000        -0.6502382723        1.0461648211       -1.1289060674
atom        11.7554000000        9.5506700000        4.2879500000 H         0.0000000000         0.0000000000        -0.3146381171       -0.0133751178        0.6774958400
atom        12.8921000000       11.4059000000        0.4972500000 H         0.0000000000         0.0000000000         1.3637085672       -0.0636240520       -1.6375986960
atom         2.1752400000        9.3856100000        5.0673300000 H         0.0000000000         0.0000000000         1.8964764080       -0.8382509202        0.0162807469
atom         1.5727400000       10.7171000000        4.0201600000 H         0.0000000000         0.0000000000         3.8841572833       -1.0239575134        0.3780315636
atom        12.7690000000        8.0548400000        5.7976600000 H         0.0000000000         0.0000000000        -0.5758910655        0.0838712131       -0.3416881399
atom         0.3574400000        8.3539000000       13.6669000000 H         0.0000000000         0.0000000000         1.3510944475       -3.0150744104        1.2063664482
atom         8.7193400000       10.7253000000        1.9248900000 H         0.0000000000         0.0000000000         1.0651436521        1.9094594965       -1.6492903938
atom         5.8021800000       12.0781000000        2.4267800000 H         0.0000000000         0.0000000000        -1.4583721168       -0.8380203148        0.5752223096
atom         7.7315100000        9.6159400000       13.8468000000 H         0.0000000000         0.0000000000        -0.1979286836       -0.6677873493        3.2463255859
atom         7.1931100000       11.7992000000        3.5083500000 H         0.0000000000         0.0000000000         1.4720239613        0.4706196638        0.9496333671
atom         4.8126000000        8.9655800000        2.1408500000 H         0.0000000000         0.0000000000        -0.5643377310       -0.4716343279        0.1650674027
atom         4.8182600000       10.4158000000        1.1182900000 H         0.0000000000         0.0000000000         2.2060873256        1.6898077767       -0.2493537057
atom         7.4875300000        8.0984700000        2.5769900000 H         0.0000000000         0.0000000000        -0.5499940701       -1.5735826147        1.0042407448
atom         6.2939900000        8.6286500000        3.8141300000 H         0.0000000000         0.0000000000        -1.6890237180        0.0298172886       -1.2611352497
atom         1.8531500000        2.1646400000        7.9045100000 H         0.0000000000         0.0000000000         0.9321534717       -0.4421168265        0.1541828240
atom        12.4673000000        1.3229900000        7.3510600000 H         0.0000000000         0.0000000000         0.1449816654       -0.4775839493       -0.5943625645
atom         1.7946000000        3.6108600000        8.9391600000 H         0.0000000000         0.0000000000         0.2166077275        3.2325353781       -1.2030457292
atom         0.4244600000        1.5936600000       13.0183000000 H         0.0000000000         0.0000000000         1.7443459727       -0.9810418335        0.3758869326
atom        11.3392000000        4.1436200000        8.0546100000 H         0.0000000000         0.0000000000        -1.4967448687        1.0238191501       -0.3078121949
atom        11.7329000000        2.7559400000        9.1186900000 H         0.0000000000         0.0000000000        -2.1157130379       -0.5240970747        0.8757473713
atom         0.9083100000        5.2854300000        7.5853700000 H         0.0000000000         0.0000000000         1.5990414597       -0.9461281638        0.7832515132
atom        12.7515000000        5.0163500000       26.2919000000 H         0.0000000000         0.0000000000        -0.1102524800       -0.0467206703       -0.2860430375
atom         4.6889900000        2.6384000000       11.4252000000 H         0.0000000000         0.0000000000        -2.9423183814        0.7087659432       -1.2175738745
atom         7.4807400000        1.4372200000       10.9368000000 H         0.0000000000         0.0000000000         0.4441461547       -1.0430055260        1.2894766632
atom         5.1017300000        4.0987900000       12.3845000000 H         0.0000000000         0.0000000000        -2.8326654756       -1.1027092848        0.8757243108
atom         6.1536300000        1.7718800000        9.7789400000 H         0.0000000000         0.0000000000        -0.8115929267       -0.6483703679       -0.2672486909
atom         8.6375100000        4.3786500000       11.2126000000 H         0.0000000000         0.0000000000         0.9784359916        0.0449450081       -0.6618377279
atom         8.3792500000        3.0361200000       12.3548000000 H         0.0000000000         0.0000000000        -1.2018004596       -2.0112948765       -0.0000691816
atom         5.8046800000        5.4172100000       10.6239000000 H         0.0000000000         0.0000000000        -0.5688114773        1.0086914306        0.8112700791
atom         7.1642600000        4.9234300000        9.5548200000 H         0.0000000000         0.0000000000         0.2317123864        3.4923355120       -1.7627944111
atom        11.2832000000       10.6730000000       11.7909000000 H         0.0000000000         0.0000000000        -0.9496564277        1.3682053741        0.5512162791
atom         0.7925000000       11.9225000000       12.4321000000 H         0.0000000000         0.0000000000        -0.1767360400        0.0082787367        0.5517697323
atom        11.8519000000        9.3683100000       10.7022000000 H         0.0000000000         0.0000000000        -3.0970777191        0.6265320289       -0.1168247362
atom        13.0452000000       11.6408000000        6.9854300000 H         0.0000000000         0.0000000000        -0.9576353773        0.9503251836        0.5832473803
atom         1.9675100000        9.0507500000       12.0944000000 H         0.0000000000         0.0000000000         1.5567022936       -1.1225644167       -0.0468359730
atom         1.6599200000       10.3475000000       10.8998000000 H         0.0000000000         0.0000000000         0.4840870239        1.7511257738        1.2081421104
atom        12.3143000000        7.9799500000       12.5526000000 H         0.0000000000         0.0000000000        -0.4909360066       -1.7990455926       -1.6728121528
atom         0.8062100000        8.5303700000        6.8769700000 H         0.0000000000         0.0000000000        -0.4286494664       -0.8176578509       -0.5199692366
atom         8.6993600000       11.1403000000        8.7510000000 H         0.0000000000         0.0000000000         0.3264451177        0.9277258465       -0.9530002071
atom         5.9021300000       11.9118000000        9.1573000000 H         0.0000000000         0.0000000000        -0.5600715296        0.9137511544        0.8746865861
atom         8.7394400000        9.6421100000        7.8072400000 H         0.0000000000         0.0000000000        -2.0720594205       -1.0830847585       -2.0520659254
atom         7.1929100000       11.6008000000       10.3554000000 H         0.0000000000         0.0000000000         0.6629676948       -2.1562304208        0.5122900741
atom         4.8079100000        9.3818400000        8.6568800000 H         0.0000000000         0.0000000000        -1.1812996325       -2.0504516870       -1.5316815990
atom         5.5124900000       10.2615000000        7.2596600000 H         0.0000000000         0.0000000000        -0.2798628107        1.0692484297        2.6515248710
atom         7.6541000000        7.9514700000        9.1919000000 H         0.0000000000         0.0000000000         2.2414852668        0.6357793087        3.5878061808
atom         6.5371200000        8.4798200000       10.5076000000 H         0.0000000000         0.0000000000        -1.2901915402        0.1873208315       -1.5665260870
atom         1.9372900000        2.1054000000       14.5749000000 H         0.0000000000         0.0000000000        -0.0514942037       -1.5578322604        0.0432385275
atom        12.4049000000        1.3496500000       14.1924000000 H         0.0000000000         0.0000000000        -0.6429050180       -1.0770428949        0.3169902930
atom         1.9759000000        3.6159700000       15.4934000000 H         0.0000000000         0.0000000000        -2.1952488680        1.4186387926        1.5893560295
atom         0.4808600000        1.6307500000       19.8556000000 H         0.0000000000         0.0000000000         1.3736246029       -0.2800472951       -1.0999189585
atom        11.3367000000        3.7912000000       14.6708000000 H         0.0000000000         0.0000000000        -0.3053447162        2.0284058031        1.9858590921
atom        12.1069000000        3.0586100000       16.1192000000 H         0.0000000000         0.0000000000        -0.0045198674       -0.7162836818       -2.8879185486
atom         0.9956200000        5.2368200000       14.0744000000 H         0.0000000000         0.0000000000         2.3240650892       -0.3043992338       -1.2496972179
atom        12.7999000000        4.7956200000       19.5648000000 H         0.0000000000         0.0000000000        -0.3650715356       -1.7001619627       -0.3200573459
atom         4.7871600000        2.1314300000       17.8756000000 H         0.0000000000         0.0000000000        -1.2473681025       -0.8968016516       -0.4613493235
atom         7.5943400000        1.2614000000       17.3873000000 H         0.0000000000         0.0000000000        -0.2731291307       -0.3472918531        0.7155226837
atom         4.8741500000        3.5870900000       18.9014000000 H         0.0000000000         0.0000000000         0.4012535354        1.5610837977       -0.5719938329
atom         6.3344800000        1.6996900000       16.1835000000 H         0.0000000000         0.0000000000        -1.5929995961       -1.9582786766       -0.7921067637
atom         8.6683300000        4.0011600000       18.0542000000 H         0.0000000000         0.0000000000         0.3263759360        0.3702601589       -0.0954706688
atom         8.1513800000        2.7117500000       19.1923000000 H         0.0000000000         0.0000000000         3.1254421932       -0.0184253779       -0.3683000123
atom         5.8267600000        5.2178300000       17.4996000000 H         0.0000000000         0.0000000000        -0.0365970897       -0.3468537026       -0.2481545572
atom         7.1287800000        4.8327100000       16.3255000000 H         0.0000000000         0.0000000000         0.4267354410        0.7266148073        1.2113014054
atom        11.2703000000       11.0534000000       18.7259000000 H         0.0000000000         0.0000000000        -0.5265184322        0.4233686010       -0.7774171946
atom         0.6264400000       12.0660000000       19.3106000000 H         0.0000000000         0.0000000000         1.0245340271        0.5953080469        0.8424479400
atom        11.4378000000        9.6715400000       17.6217000000 H         0.0000000000         0.0000000000         2.4998325862       -1.8092152943       -0.2367165253
atom        12.7876000000       11.5244000000       13.5907000000 H         0.0000000000         0.0000000000        -0.0981918134        0.8487895907       -1.4600324763
atom         1.8944700000        9.3161900000       18.4815000000 H         0.0000000000         0.0000000000         3.7515360717        0.2414900588        0.2318738103
atom         1.4370700000       10.7784000000       17.5410000000 H         0.0000000000         0.0000000000         3.5402783914       -1.5944985317       -0.9806267437
atom        12.4306000000        8.0328500000       18.9124000000 H         0.0000000000         0.0000000000        -0.7928677618       -1.0028801725       -1.1647882801
atom         0.4508700000        8.2327400000        0.2869200000 H         0.0000000000         0.0000000000         1.2721581916        0.3084117691        0.1487635952
atom         8.5406300000       10.4168000000       15.2378000000 H         0.0000000000         0.0000000000        -0.3731888485        2.1182266376       -1.6219636444
atom         5.6366800000       11.9323000000       15.8348000000 H         0.0000000000         0.0000000000        -2.2835707669       -0.3514196912        1.0368022386
atom         8.0641900000        9.6637300000        0.6276200000 H         0.0000000000         0.0000000000         1.3326921302       -1.0337582463        2.1559998153
atom         6.9384200000       11.5153000000       16.9878000000 H         0.0000000000         0.0000000000         0.5691804460        0.6881036921        0.5519080956
atom         4.5977200000        8.7996700000       15.4209000000 H         0.0000000000         0.0000000000        -0.4067650064       -1.8467117454        0.4231610560
atom         4.5727100000       10.3020000000       14.4866000000 H         0.0000000000         0.0000000000         2.4320115144        1.0900951651       -1.3529854124