begin
comment generated by PY
lattice        40.0000000000         0.0000000000         0.0000000000
lattice         0.0000000000        40.0000000000         0.0000000000
lattice         0.0000000000         0.0000000000        40.0000000000
atom         9.1387200000        4.1687900000        3.1580600000 H         0.0000000000         0.0000000000       -86.4025378406      -22.1227017671      -53.6256189071
atom         7.6959800000        3.0291600000        2.9561200000 H         0.0000000000         0.0000000000        49.1117611428       84.9491498322      -34.6833579104
atom         8.2317000000        3.9122200000        2.6157100000 C         0.0000000000         0.0000000000       -42.8429498659       72.7374659159     -103.5009245510
atom         7.8174800000        4.6125400000        1.6253700000 O         0.0000000000         0.0000000000        80.1336865637     -135.5639909204      191.8096783079
energy      -621.1473144265
charge 0
end
begin
comment generated by PY
lattice        40.0000000000         0.0000000000         0.0000000000
lattice         0.0000000000        40.0000000000         0.0000000000
lattice         0.0000000000         0.0000000000        40.0000000000
atom         9.1473600000        4.1925400000        3.1436700000 H         0.0000000000         0.0000000000       -88.6077886182      -29.8521655772      -48.4720343666
atom         7.6527700000        3.0715900000        2.8808200000 H         0.0000000000         0.0000000000        58.5708149867       71.7120760687      -14.5973028699
atom         8.2377100000        3.9126800000        2.6204700000 C         0.0000000000         0.0000000000       -54.2613142898       85.1162013289     -124.5341512907
atom         7.8151400000        4.6080600000        1.6274000000 O         0.0000000000         0.0000000000        84.2981879213     -126.9765687599      187.6029885273
energy      -623.3516588652
charge 0
end
begin
comment generated by PY
lattice        40.0000000000         0.0000000000         0.0000000000
lattice         0.0000000000        40.0000000000         0.0000000000
lattice         0.0000000000         0.0000000000        40.0000000000
atom         9.1147900000        4.1117600000        3.1949300000 H         0.0000000000         0.0000000000       -70.3272053272       -8.6324912503      -53.2879265836
atom         7.6143400000        3.0449000000        2.8779300000 H         0.0000000000         0.0000000000        73.2036064380       86.3543311400      -16.6493793753
atom         8.2557500000        3.9196100000        2.6282300000 C         0.0000000000         0.0000000000      -105.8980073416       47.5078847000     -131.2387556377
atom         7.8060300000        4.6095800000        1.6185500000 O         0.0000000000         0.0000000000       103.0219782913     -125.2296476502      201.1760615966
energy      -615.4847198802
charge 0
end
begin
comment generated by PY
lattice        40.0000000000         0.0000000000         0.0000000000
lattice         0.0000000000        40.0000000000         0.0000000000
lattice         0.0000000000         0.0000000000        40.0000000000
atom         9.1842000000        4.1305200000        3.2312800000 H         0.0000000000         0.0000000000       -96.6299288600      -11.7620449812      -71.4444017956
atom         7.6971600000        3.0194500000        2.9617300000 H         0.0000000000         0.0000000000        49.1911325191       89.9893926764      -38.4918190597
atom         8.2336500000        3.9243600000        2.6068800000 C         0.0000000000         0.0000000000       -38.2086226570       48.8197961940      -79.1795296334
atom         7.8131000000        4.6064300000        1.6270700000 O         0.0000000000         0.0000000000        85.6473189979     -127.0471438892      189.1156504886
energy      -614.2091073824
charge 0
end
begin
comment generated by PY
lattice        40.0000000000         0.0000000000         0.0000000000
lattice         0.0000000000        40.0000000000         0.0000000000
lattice         0.0000000000         0.0000000000        40.0000000000
atom         9.1519900000        4.1528200000        3.1930700000 H         0.0000000000         0.0000000000       -90.7691330498      -16.8360139276      -63.9757828178
atom         7.7674100000        2.9618200000        3.0839400000 H         0.0000000000         0.0000000000        33.2739642122       98.4694931482      -61.9892382714
atom         8.2292100000        3.9005400000        2.6224000000 C         0.0000000000         0.0000000000       -23.7968574306       77.0696383294      -86.7596624155
atom         7.8140600000        4.6265200000        1.6101700000 O         0.0000000000         0.0000000000        81.2919932077     -158.7031175501      212.7244835047
energy      -601.8564124259
charge 0
end
begin
comment generated by PY
lattice        40.0000000000         0.0000000000         0.0000000000
lattice         0.0000000000        40.0000000000         0.0000000000
lattice         0.0000000000         0.0000000000        40.0000000000
atom         9.1518800000        4.1751600000        3.1604500000 H         0.0000000000         0.0000000000       -92.0069375858      -24.4527443153      -55.5684129827
atom         7.7793000000        3.0254600000        3.0271700000 H         0.0000000000         0.0000000000        25.8221870052       76.0182149064      -45.8144756851
atom         8.2265500000        3.8925700000        2.6298400000 C         0.0000000000         0.0000000000       -11.5432434977      107.2961033948     -109.8944618728
atom         7.8153200000        4.6271300000        1.6101700000 O         0.0000000000         0.0000000000        77.7280440782     -158.8614839860      211.2775936011
energy      -611.0865089773
charge 0
end
begin
comment generated by PY
lattice        40.0000000000         0.0000000000         0.0000000000
lattice         0.0000000000        40.0000000000         0.0000000000
lattice         0.0000000000         0.0000000000        40.0000000000
atom         9.1257300000        4.1248100000        3.1917200000 H         0.0000000000         0.0000000000       -79.6102460208       -8.2187907087      -61.5330394719
atom         7.7493600000        3.0057100000        3.0280300000 H         0.0000000000         0.0000000000        36.7810914457       90.4279321551      -51.3439435948
atom         8.2365800000        3.9106900000        2.6200000000 C         0.0000000000         0.0000000000       -43.5241119837       63.7884905829      -92.9590192486
atom         7.8113000000        4.6179100000        1.6155500000 O         0.0000000000         0.0000000000        86.3535065588     -145.9977320293      205.8360953759
energy      -614.1270509019
charge 0
end
begin
comment generated by PY
lattice        40.0000000000         0.0000000000         0.0000000000
lattice         0.0000000000        40.0000000000         0.0000000000
lattice         0.0000000000         0.0000000000        40.0000000000
atom         9.1484700000        4.0511800000        3.2712500000 H         0.0000000000         0.0000000000       -85.0005646692        9.3271511350      -80.6357323923
atom         7.7154300000        3.0123900000        2.9869700000 H         0.0000000000         0.0000000000        41.9417922265       92.4044592724      -47.3336107243
atom         8.2371400000        3.9336500000        2.6010400000 C         0.0000000000         0.0000000000       -46.6879329381       18.8196445668      -58.5298108643
atom         7.8115800000        4.6048500000        1.6273800000 O         0.0000000000         0.0000000000        89.7466053807     -120.5512549742      186.4994309204
energy      -614.3057253144
charge 0
end
begin
comment generated by PY
lattice        40.0000000000         0.0000000000         0.0000000000
lattice         0.0000000000        40.0000000000         0.0000000000
lattice         0.0000000000         0.0000000000        40.0000000000
atom         9.1364800000        4.1445500000        3.1779600000 H         0.0000000000         0.0000000000       -83.0597681821      -17.5895038552      -54.9914309822
atom         7.6685100000        3.0616200000        2.9048500000 H         0.0000000000         0.0000000000        55.3753114041       75.6914615315      -21.2122317624
atom         8.2435600000        3.9120200000        2.6257100000 C         0.0000000000         0.0000000000       -64.6555904938       74.5736533309     -123.2363261083
atom         7.8104400000        4.6121800000        1.6198200000 O         0.0000000000         0.0000000000        92.3402703323     -132.6755110072      199.4402888529
energy      -619.9102994457
charge 0
end
begin
comment generated by PY
lattice        40.0000000000         0.0000000000         0.0000000000
lattice         0.0000000000        40.0000000000         0.0000000000
lattice         0.0000000000         0.0000000000        40.0000000000
atom         9.1248700000        4.1874300000        3.1314300000 H         0.0000000000         0.0000000000       -78.7254833596      -26.1648201051      -44.1019339400
atom         7.6180800000        3.0534900000        2.8728300000 H         0.0000000000         0.0000000000        70.3717655674       82.4802856757      -15.3163507509
atom         8.2387500000        3.9233600000        2.6105100000 C         0.0000000000         0.0000000000       -73.1172881770       56.8679553218     -112.5693594735
atom         7.8179300000        4.6014900000        1.6361400000 O         0.0000000000         0.0000000000        81.4705790297     -113.1834978319      171.9876441644
energy      -626.8820642839
charge 0
end
begin
comment generated by PY
lattice        40.0000000000         0.0000000000         0.0000000000
lattice         0.0000000000        40.0000000000         0.0000000000
lattice         0.0000000000         0.0000000000        40.0000000000
atom         9.1483200000        4.1857300000        3.1459500000 H         0.0000000000         0.0000000000       -90.1192039978      -27.7879261667      -50.7474765541
atom         7.7355000000        3.0687500000        2.9516700000 H         0.0000000000         0.0000000000        32.3121676881       60.8642078017      -26.6477069687
atom         8.2319300000        3.9000900000        2.6276000000 C         0.0000000000         0.0000000000       -22.8810673221      112.9736867292     -124.8330584200
atom         7.8142400000        4.6181200000        1.6174800000 O         0.0000000000         0.0000000000        80.6880805713     -146.0498683642      202.2282119427
energy      -620.1425926906
charge 0
end
begin
comment generated by PY
lattice        40.0000000000         0.0000000000         0.0000000000
lattice         0.0000000000        40.0000000000         0.0000000000
lattice         0.0000000000         0.0000000000        40.0000000000
atom         9.1434400000        4.1677000000        3.1673200000 H         0.0000000000         0.0000000000       -88.9775604458      -17.9774865305      -60.8183155782
atom         7.7822600000        2.9607800000        3.0993900000 H         0.0000000000         0.0000000000        27.8013254043       98.2440794917      -66.4877256219
atom         8.2195200000        3.9095300000        2.6061000000 C         0.0000000000         0.0000000000        -8.2574569685       68.9509386596      -66.8159676198
atom         7.8209400000        4.6189000000        1.6230500000 O         0.0000000000         0.0000000000        69.4337220100     -149.2175316208      194.1221088199
energy      -609.7348551766
charge 0
end
begin
comment generated by PY
lattice        40.0000000000         0.0000000000         0.0000000000
lattice         0.0000000000        40.0000000000         0.0000000000
lattice         0.0000000000         0.0000000000        40.0000000000
atom         9.1800700000        4.1588800000        3.1985400000 H         0.0000000000         0.0000000000       -97.4334767166      -17.8821502671      -66.3258829032
atom         7.7797900000        2.9856900000        3.0667500000 H         0.0000000000         0.0000000000        28.9963677949       93.2594396720      -59.1766056016
atom         8.2238700000        3.9056300000        2.6151400000 C         0.0000000000         0.0000000000        -8.9011702715       77.6078312770      -79.8343520612
atom         7.8155400000        4.6208300000        1.6163500000 O         0.0000000000         0.0000000000        77.3382922537     -152.9851206819      205.3368405659
energy      -605.8468476862
charge 0
end
begin
comment generated by PY
lattice        40.0000000000         0.0000000000         0.0000000000
lattice         0.0000000000        40.0000000000         0.0000000000
lattice         0.0000000000         0.0000000000        40.0000000000
atom         9.1288400000        4.0584200000        3.2530600000 H         0.0000000000         0.0000000000       -78.3824169768        4.8898726513      -72.2636518461
atom         7.7282800000        2.9856600000        3.0293100000 H         0.0000000000         0.0000000000        42.3487019311       96.3636867903      -52.0982379863
atom         8.2486100000        3.9081500000        2.6323600000 C         0.0000000000         0.0000000000       -64.3970063664       49.2192201610      -97.4743825378
atom         7.8033900000        4.6252200000        1.6023600000 O         0.0000000000         0.0000000000       100.4308514121     -150.4727865421      221.8359834308
energy      -600.4679096979
charge 0
end
begin
comment generated by PY
lattice        40.0000000000         0.0000000000         0.0000000000
lattice         0.0000000000        40.0000000000         0.0000000000
lattice         0.0000000000         0.0000000000        40.0000000000
atom         9.1298900000        4.0600300000        3.2481300000 H         0.0000000000         0.0000000000       -79.9493070578        4.3573170901      -71.7259795383
atom         7.7190500000        3.0312400000        2.9692100000 H         0.0000000000         0.0000000000        41.9950748430       84.7160304020      -39.8584102918
atom         8.2450400000        3.9151400000        2.6246700000 C         0.0000000000         0.0000000000       -60.3176422986       49.9476649791      -99.0421853023
atom         7.8065800000        4.6170200000        1.6122000000 O         0.0000000000         0.0000000000        98.2718975739     -139.0208794107      210.6262251324
energy      -612.2395765205
charge 0
end
begin
comment generated by PY
lattice        40.0000000000         0.0000000000         0.0000000000
lattice         0.0000000000        40.0000000000         0.0000000000
lattice         0.0000000000         0.0000000000        40.0000000000
atom         9.1213500000        4.0912100000        3.2177600000 H         0.0000000000         0.0000000000       -79.2911246319        1.2770595191      -69.3839007830
atom         7.7518500000        3.0290900000        3.0023100000 H         0.0000000000         0.0000000000        31.8510827970       84.6014620782      -49.3017580507
atom         8.2305200000        3.9238700000        2.6033500000 C         0.0000000000         0.0000000000       -33.6760963085       42.2864647855      -66.8572953541
atom         7.8159600000        4.6086500000        1.6280300000 O         0.0000000000         0.0000000000        81.1160981434     -128.1649463828      185.5431541878
energy      -622.7133283993
charge 0
end
begin
comment generated by PY
lattice        40.0000000000         0.0000000000         0.0000000000
lattice         0.0000000000        40.0000000000         0.0000000000
lattice         0.0000000000         0.0000000000        40.0000000000
atom         9.0845000000        4.1703300000        3.1153500000 H         0.0000000000         0.0000000000       -60.6817980684      -16.5481074354      -37.4671729579
atom         7.7615000000        3.0459900000        2.9958500000 H         0.0000000000         0.0000000000        29.7777687976       72.1622425715      -40.0080261623
atom         8.2308900000        3.9021900000        2.6229000000 C         0.0000000000         0.0000000000       -45.0357926175       91.0766786861     -120.1776726728
atom         7.8173900000        4.6189200000        1.6201600000 O         0.0000000000         0.0000000000        75.9397218882     -146.6905438222      197.6523917930
energy      -626.0595308057
charge 0
end
begin
comment generated by PY
lattice        40.0000000000         0.0000000000         0.0000000000
lattice         0.0000000000        40.0000000000         0.0000000000
lattice         0.0000000000         0.0000000000        40.0000000000
atom         9.1554900000        4.2634400000        3.0865300000 H         0.0000000000         0.0000000000       -93.6322614377      -45.1828020072      -38.5996969152
atom         7.6994400000        3.0349700000        2.9465800000 H         0.0000000000         0.0000000000        49.1060378415       80.8325736589      -29.9707748193
atom         8.2227300000        3.9100900000        2.6102300000 C         0.0000000000         0.0000000000       -19.0033055662       96.2279296083     -105.9515551156
atom         7.8229500000        4.6078600000        1.6345500000 O         0.0000000000         0.0000000000        63.5295291625     -131.8780012599      174.5218268502
energy      -624.1003459962
charge 0
end
begin
comment generated by PY
lattice        40.0000000000         0.0000000000         0.0000000000
lattice         0.0000000000        40.0000000000         0.0000000000
lattice         0.0000000000         0.0000000000        40.0000000000
atom         9.1336500000        4.2169100000        3.1207800000 H         0.0000000000         0.0000000000       -84.4099641164      -33.0163795319      -43.9972512128
atom         7.7036100000        2.9817400000        3.0075100000 H         0.0000000000         0.0000000000        51.7599159449       96.5754866384      -44.0717540952
atom         8.2333500000        3.9017700000        2.6243600000 C         0.0000000000         0.0000000000       -45.3437486422       86.7060693760     -113.9550083195
atom         7.8160800000        4.6203400000        1.6179900000 O         0.0000000000         0.0000000000        77.9942937531     -150.2651995430      202.0235136274
energy      -611.5789975789
charge 0
end
begin
comment generated by PY
lattice        40.0000000000         0.0000000000         0.0000000000
lattice         0.0000000000        40.0000000000         0.0000000000
lattice         0.0000000000         0.0000000000        40.0000000000
atom         9.1843800000        4.1381100000        3.2271700000 H         0.0000000000         0.0000000000       -96.9993191689      -12.0318978015      -71.8539941665
atom         7.7664200000        3.0004500000        3.0350400000 H         0.0000000000         0.0000000000        30.8063222056       90.7798709171      -54.7939868215
atom         8.2236900000        3.9146300000        2.6065600000 C         0.0000000000         0.0000000000       -11.8773947909       63.2450566870      -69.2392296661
atom         7.8162400000        4.6144400000        1.6229800000 O         0.0000000000         0.0000000000        78.0702917542     -141.9930298026      195.8873106541
energy      -610.1328569768
charge 0
end
begin
comment generated by PY
lattice        40.0000000000         0.0000000000         0.0000000000
lattice         0.0000000000        40.0000000000         0.0000000000
lattice         0.0000000000         0.0000000000        40.0000000000
atom         9.0956800000        4.0686400000        3.2176800000 H         0.0000000000         0.0000000000       -66.1665903188        6.9466945672      -63.2761475275
atom         7.7355600000        2.9797700000        3.0299700000 H         0.0000000000         0.0000000000        39.6144207494       97.4632099889      -53.9493470709
atom         8.2424200000        3.9178100000        2.6190400000 C         0.0000000000         0.0000000000       -66.5316473101       37.6097091525      -91.1269854984
atom         7.8096500000        4.6176900000        1.6145300000 O         0.0000000000         0.0000000000        93.0834168794     -142.0195906480      208.3529531574
energy      -611.4506083168
charge 0
end
begin
comment generated by PY
lattice        40.0000000000         0.0000000000         0.0000000000
lattice         0.0000000000        40.0000000000         0.0000000000
lattice         0.0000000000         0.0000000000        40.0000000000
atom         9.1361900000        4.1284400000        3.2044400000 H         0.0000000000         0.0000000000       -84.7340278235      -13.0633415033      -62.4045435630
atom         7.6933500000        3.0828400000        2.9041600000 H         0.0000000000         0.0000000000        44.4531536600       64.5021263592      -20.9638146574
atom         8.2414000000        3.9143400000        2.6200300000 C         0.0000000000         0.0000000000       -51.5828461241       78.1507378089     -111.9715148772
atom         7.8105200000        4.6101200000        1.6224800000 O         0.0000000000         0.0000000000        91.8637202876     -129.5892226648      195.3397730976
energy      -623.1491229590
charge 0
end
begin
comment generated by PY
lattice        40.0000000000         0.0000000000         0.0000000000
lattice         0.0000000000        40.0000000000         0.0000000000
lattice         0.0000000000         0.0000000000        40.0000000000
atom         9.1233600000        4.1667600000        3.1480400000 H         0.0000000000         0.0000000000       -78.2605857892      -21.3866839030      -46.7886822084
atom         7.6255500000        3.0566900000        2.8563600000 H         0.0000000000         0.0000000000        68.3346036189       80.5084250951      -12.0869665272
atom         8.2404100000        3.9233300000        2.6140600000 C         0.0000000000         0.0000000000       -75.5902275245       54.5399929298     -118.4836723314
atom         7.8163100000        4.6026000000        1.6334700000 O         0.0000000000         0.0000000000        85.5161866342     -113.6618341219      177.3594980065
energy      -626.4785465848
charge 0
end
begin
comment generated by PY
lattice        40.0000000000         0.0000000000         0.0000000000
lattice         0.0000000000        40.0000000000         0.0000000000
lattice         0.0000000000         0.0000000000        40.0000000000
atom         9.1323400000        4.1963300000        3.1427200000 H         0.0000000000         0.0000000000       -82.3793412701      -30.5741685867      -45.0324802844
atom         7.6467900000        3.0661400000        2.8801000000 H         0.0000000000         0.0000000000        61.9973398486       73.0103050423      -13.8706639293
atom         8.2441200000        3.9055500000        2.6297800000 C         0.0000000000         0.0000000000       -69.2135228742       92.1148751358     -138.6474628887
atom         7.8116300000        4.6135200000        1.6205200000 O         0.0000000000         0.0000000000        89.5950012350     -134.5505746519      197.5501071023
energy      -619.2208951261
charge 0
end
begin
comment generated by PY
lattice        40.0000000000         0.0000000000         0.0000000000
lattice         0.0000000000        40.0000000000         0.0000000000
lattice         0.0000000000         0.0000000000        40.0000000000
atom         9.1816800000        4.1475700000        3.2177500000 H         0.0000000000         0.0000000000       -97.3281086980      -14.9633836612      -69.5444843214
atom         7.7423900000        2.9946600000        3.0168900000 H         0.0000000000         0.0000000000        37.3574152196       93.2236538314      -51.0295498448
atom         8.2242900000        3.9163600000        2.6056700000 C         0.0000000000         0.0000000000       -17.5945091228       60.2249604337      -71.8017210623
atom         7.8174600000        4.6129200000        1.6253800000 O         0.0000000000         0.0000000000        77.5651795407     -138.4851306038      192.3757552285
energy      -611.4771759765
charge 0
end
begin
comment generated by PY
lattice        40.0000000000         0.0000000000         0.0000000000
lattice         0.0000000000        40.0000000000         0.0000000000
lattice         0.0000000000         0.0000000000        40.0000000000
atom         9.1163900000        4.1488300000        3.1674300000 H         0.0000000000         0.0000000000       -78.0466849566      -14.2150734961      -55.2073760663
atom         7.7911000000        2.9840500000        3.0758900000 H         0.0000000000         0.0000000000        27.2086165784       91.2709946860      -59.6629300667
atom         8.2307200000        3.8943100000        2.6293500000 C         0.0000000000         0.0000000000       -29.7094376511       84.4173295585      -99.7687562018
atom         7.8136700000        4.6300500000        1.6070600000 O         0.0000000000         0.0000000000        80.5474290898     -161.4732738089      214.6389923348
energy      -607.3498332031
charge 0
end
begin
comment generated by PY
lattice        40.0000000000         0.0000000000         0.0000000000
lattice         0.0000000000        40.0000000000         0.0000000000
lattice         0.0000000000         0.0000000000        40.0000000000
atom         9.1871000000        4.2311800000        3.1529400000 H         0.0000000000         0.0000000000      -101.0307282597      -35.0287481494      -56.1336347306
atom         7.7720800000        3.0090100000        3.0375400000 H         0.0000000000         0.0000000000        29.8714133826       85.9069712540      -52.5393642238
atom         8.2129900000        3.9062000000        2.6033800000 C         0.0000000000         0.0000000000         9.2056740488       93.6310581315      -74.6920724214
atom         7.8237500000        4.6144200000        1.6298600000 O         0.0000000000         0.0000000000        61.9535177677     -144.5092812361      183.3649944363
energy      -614.6564801539
charge 0
end
begin
comment generated by PY
lattice        40.0000000000         0.0000000000         0.0000000000
lattice         0.0000000000        40.0000000000         0.0000000000
lattice         0.0000000000         0.0000000000        40.0000000000
atom         9.1095200000        4.2373000000        3.0714300000 H         0.0000000000         0.0000000000       -72.3985116388      -36.2682375510      -28.4184919167
atom         7.6844800000        3.0139900000        2.9496900000 H         0.0000000000         0.0000000000        55.9216902459       88.6249967950      -30.6924439756
atom         8.2318800000        3.9052900000        2.6226900000 C         0.0000000000         0.0000000000       -55.7065715696       87.5858877256     -130.2678437899
atom         7.8198900000        4.6144100000        1.6259500000 O         0.0000000000         0.0000000000        72.1835160230     -139.9426469696      189.3787796822
energy      -621.9870623465
charge 0
end
begin
comment generated by PY
lattice        40.0000000000         0.0000000000         0.0000000000
lattice         0.0000000000        40.0000000000         0.0000000000
lattice         0.0000000000         0.0000000000        40.0000000000
atom         9.1288200000        4.1893600000        3.1427300000 H         0.0000000000         0.0000000000       -84.2809239717      -25.9289248523      -50.3537061848
atom         7.7118400000        3.0552200000        2.9454800000 H         0.0000000000         0.0000000000        42.5676443908       73.8937486258      -31.1209260276
atom         8.2285900000        3.9127600000        2.6105100000 C         0.0000000000         0.0000000000       -32.6716547981       82.8456869182      -99.9573711396
atom         7.8194400000        4.6092200000        1.6309000000 O         0.0000000000         0.0000000000        74.3848343790     -130.8106306917      181.4321802914
energy      -627.7668959421
charge 0
end
begin
comment generated by PY
lattice        40.0000000000         0.0000000000         0.0000000000
lattice         0.0000000000        40.0000000000         0.0000000000
lattice         0.0000000000         0.0000000000        40.0000000000
atom         9.1066800000        4.1049300000        3.1961900000 H         0.0000000000         0.0000000000       -72.7992127011       -3.3740392763      -59.7701697431
atom         7.7372800000        3.0277600000        2.9857800000 H         0.0000000000         0.0000000000        37.4885267686       83.7718143136      -43.1785764659
atom         8.2370500000        3.9133100000        2.6185700000 C         0.0000000000         0.0000000000       -52.2299586609       59.0285584113      -98.3526737092
atom         7.8128900000        4.6158100000        1.6189800000 O         0.0000000000         0.0000000000        87.5410376540     -139.4258434486      201.3012499182
energy      -620.3085414608
charge 0
end
begin
comment generated by PY
lattice        40.0000000000         0.0000000000         0.0000000000
lattice         0.0000000000        40.0000000000         0.0000000000
lattice         0.0000000000         0.0000000000        40.0000000000
atom         9.1340400000        4.0601200000        3.2547800000 H         0.0000000000         0.0000000000       -81.0240624307        3.6806256169      -71.7636349226
atom         7.6968500000        3.0036700000        2.9635700000 H         0.0000000000         0.0000000000        50.6046061958       93.5826985629      -38.8599431830
atom         8.2494500000        3.9156900000        2.6289600000 C         0.0000000000         0.0000000000       -71.5671525789       42.5873623880     -104.5778132128
atom         7.8044000000        4.6183200000        1.6089100000 O         0.0000000000         0.0000000000       101.9865588139     -139.8507165678      215.2011213185
energy      -606.3536873031