begin
comment generated by PY
lattice        40.0000000000         0.0000000000         0.0000000000
lattice         0.0000000000        40.0000000000         0.0000000000
lattice         0.0000000000         0.0000000000        40.0000000000
atom        20.0000000000       20.0000000000       20.0000000000 C         0.0000000000         0.0000000000        -0.0001153027       -0.0001844844       -0.0000922422
atom        20.0000000000       20.0000000000       21.2487000000 O         0.0000000000         0.0000000000         0.0001153027        0.0001383633     -291.1141248428
atom        20.0000000000       20.0000000000       18.7513000000 O         0.0000000000         0.0000000000         0.0000000000        0.0000230605      291.1141940244
energy      -627.2004689795
charge 0
end
begin
comment generated by PY
lattice        40.0000000000         0.0000000000         0.0000000000
lattice         0.0000000000        40.0000000000         0.0000000000
lattice         0.0000000000         0.0000000000        40.0000000000
atom        19.9994000000       19.9995000000       19.9984000000 C         0.0000000000         0.0000000000         0.5308970577        0.4641971650        3.3844643671
atom        20.0002000000       20.0002000000       21.2484000000 O         0.0000000000         0.0000000000        -0.2660497709       -0.2324937374     -291.9551375732
atom        20.0002000000       20.0002000000       18.7528000000 O         0.0000000000         0.0000000000        -0.2648470868       -0.2317037275      288.5710132061
energy      -627.7193375486
charge 0
end
begin
comment generated by PY
lattice        40.0000000000         0.0000000000         0.0000000000
lattice         0.0000000000        40.0000000000         0.0000000000
lattice         0.0000000000         0.0000000000        40.0000000000
atom        20.0039000000       20.0033000000       19.9975000000 C         0.0000000000         0.0000000000        -3.5580643092       -3.0231783975        4.7502151185
atom        19.9985000000       19.9987000000       21.2579000000 O         0.0000000000         0.0000000000         1.7958088664        1.5276791273     -300.8360191401
atom        19.9986000000       19.9988000000       18.7440000000 O         0.0000000000         0.0000000000         1.7622554427        1.4954992702      296.0860540216
energy      -622.3116499890
charge 0
end
begin
comment generated by PY
lattice        40.0000000000         0.0000000000         0.0000000000
lattice         0.0000000000        40.0000000000         0.0000000000
lattice         0.0000000000         0.0000000000        40.0000000000
atom        19.9887000000       19.9904000000       19.9960000000 C         0.0000000000         0.0000000000        10.2936442189        8.7661254791        8.0066934854
atom        20.0042000000       20.0036000000       21.2538000000 O         0.0000000000         0.0000000000        -5.1733568166       -4.4056812881     -298.3475734130
atom        20.0042000000       20.0036000000       18.7492000000 O         0.0000000000         0.0000000000        -5.1202874023       -4.3604441910      290.3411899276
energy      -624.9332669897
charge 0
end
begin
comment generated by PY
lattice        40.0000000000         0.0000000000         0.0000000000
lattice         0.0000000000        40.0000000000         0.0000000000
lattice         0.0000000000         0.0000000000        40.0000000000
atom        20.0171000000       20.0145000000       20.0019000000 C         0.0000000000         0.0000000000       -15.6178199682      -13.2584344711       -3.7514483995
atom        19.9936000000       19.9946000000       21.2536000000 O         0.0000000000         0.0000000000         7.7904472016        6.6019650254     -294.4027182363
atom        19.9936000000       19.9945000000       18.7449000000 O         0.0000000000         0.0000000000         7.8273727665        6.6564925062      298.1532166358
energy      -623.5615205482
charge 0
end
begin
comment generated by PY
lattice        40.0000000000         0.0000000000         0.0000000000
lattice         0.0000000000        40.0000000000         0.0000000000
lattice         0.0000000000         0.0000000000        40.0000000000
atom        19.9844000000       19.9868000000       20.0030000000 C         0.0000000000         0.0000000000        14.2345427516       12.0444873075       -6.1597290212
atom        20.0058000000       20.0049000000       21.2484000000 O         0.0000000000         0.0000000000        -7.0769091760       -5.9861847318     -288.7962568094
atom        20.0059000000       20.0050000000       18.7494000000 O         0.0000000000         0.0000000000        -7.1576335756       -6.0583025757      294.9560788911
energy      -626.4594366136
charge 0
end
begin
comment generated by PY
lattice        40.0000000000         0.0000000000         0.0000000000
lattice         0.0000000000        40.0000000000         0.0000000000
lattice         0.0000000000         0.0000000000        40.0000000000
atom        20.0187000000       20.0158000000       20.0008000000 C         0.0000000000         0.0000000000       -17.0264074206      -14.4093364736       -1.7357161712
atom        19.9930000000       19.9940000000       21.2447000000 O         0.0000000000         0.0000000000         8.5030618117        7.2074577263     -286.7892584293
atom        19.9930000000       19.9941000000       18.7547000000 O         0.0000000000         0.0000000000         8.5233556089        7.2018787472      288.5248295399
energy      -628.9647161594
charge 0
end
begin
comment generated by PY
lattice        40.0000000000         0.0000000000         0.0000000000
lattice         0.0000000000        40.0000000000         0.0000000000
lattice         0.0000000000         0.0000000000        40.0000000000
atom        19.9837000000       19.9861000000       20.0006000000 C         0.0000000000         0.0000000000        14.8147270642       12.6322342115       -1.4017269341
atom        20.0061000000       20.0052000000       21.2409000000 O         0.0000000000         0.0000000000        -7.3999523595       -6.3098381090     -283.1318482336
atom        20.0061000000       20.0052000000       18.7586000000 O         0.0000000000         0.0000000000        -7.4147747048       -6.3223961025      284.5336431071
energy      -631.2530736554
charge 0
end
begin
comment generated by PY
lattice        40.0000000000         0.0000000000         0.0000000000
lattice         0.0000000000        40.0000000000         0.0000000000
lattice         0.0000000000         0.0000000000        40.0000000000
atom        20.0211000000       20.0179000000       20.0001000000 C         0.0000000000         0.0000000000       -19.2336515947      -16.3154147315       -0.2294584470
atom        19.9921000000       19.9933000000       21.2476000000 O         0.0000000000         0.0000000000         9.6153435482        8.1564589789     -290.0984610920
atom        19.9921000000       19.9933000000       18.7523000000 O         0.0000000000         0.0000000000         9.6183180465        8.1589557526      290.3275495391
energy      -627.3310558702
charge 0
end
begin
comment generated by PY
lattice        40.0000000000         0.0000000000         0.0000000000
lattice         0.0000000000        40.0000000000         0.0000000000
lattice         0.0000000000         0.0000000000        40.0000000000
atom        19.9685000000       19.9732000000       19.9965000000 C         0.0000000000         0.0000000000        28.6929386559       24.3908000452        7.6529838616
atom        20.0119000000       20.0101000000       21.2445000000 O         0.0000000000         0.0000000000       -14.4344310493      -12.2719916548     -289.7733612776
atom        20.0118000000       20.0100000000       18.7581000000 O         0.0000000000         0.0000000000       -14.2585006672      -12.1188083904      282.1206374160
energy      -629.2831128533
charge 0
end
begin
comment generated by PY
lattice        40.0000000000         0.0000000000         0.0000000000
lattice         0.0000000000        40.0000000000         0.0000000000
lattice         0.0000000000         0.0000000000        40.0000000000
atom        20.0295000000       20.0251000000       19.9982000000 C         0.0000000000         0.0000000000       -26.9752157924      -22.9225584700        3.4717903952
atom        19.9889000000       19.9906000000       21.2541000000 O         0.0000000000         0.0000000000        13.5170995970       11.4863515534     -297.3046775210
atom        19.9889000000       19.9906000000       18.7472000000 O         0.0000000000         0.0000000000        13.4581061955       11.4362069166      293.8328871258
energy      -623.4672943029
charge 0
end
begin
comment generated by PY
lattice        40.0000000000         0.0000000000         0.0000000000
lattice         0.0000000000        40.0000000000         0.0000000000
lattice         0.0000000000         0.0000000000        40.0000000000
atom        19.9748000000       19.9786000000       20.0009000000 C         0.0000000000         0.0000000000        23.0375439863       19.5801838094       -1.7321907814
atom        20.0094000000       20.0080000000       21.2553000000 O         0.0000000000         0.0000000000       -11.4946881437       -9.7679221043     -296.6383987078
atom        20.0095000000       20.0081000000       18.7440000000 O         0.0000000000         0.0000000000       -11.5428558426       -9.8122617051      298.3706794891
energy      -622.4222313755
charge 0
end
begin
comment generated by PY
lattice        40.0000000000         0.0000000000         0.0000000000
lattice         0.0000000000        40.0000000000         0.0000000000
lattice         0.0000000000         0.0000000000        40.0000000000
atom        20.0362000000       20.0308000000       20.0014000000 C         0.0000000000         0.0000000000       -33.0344460620      -28.0926876446       -2.9400402389
atom        19.9864000000       19.9885000000       21.2471000000 O         0.0000000000         0.0000000000        16.4848858975       14.0072910075     -288.9349638528
atom        19.9864000000       19.9884000000       18.7518000000 O         0.0000000000         0.0000000000        16.5496001645       14.0853466372      291.8757640917
energy      -626.3904361253
charge 0
end
begin
comment generated by PY
lattice        40.0000000000         0.0000000000         0.0000000000
lattice         0.0000000000        40.0000000000         0.0000000000
lattice         0.0000000000         0.0000000000        40.0000000000
atom        19.9683000000       19.9731000000       19.9971000000 C         0.0000000000         0.0000000000        28.9034665093       24.5281376453        6.1272076859
atom        20.0119000000       20.0101000000       21.2478000000 O         0.0000000000         0.0000000000       -14.5113499487      -12.3147105978     -292.4328836279
atom        20.0119000000       20.0101000000       18.7544000000 O         0.0000000000         0.0000000000       -14.3921465605      -12.2134270475      286.3056159421
energy      -627.2645716071
charge 0
end
begin
comment generated by PY
lattice        40.0000000000         0.0000000000         0.0000000000
lattice         0.0000000000        40.0000000000         0.0000000000
lattice         0.0000000000         0.0000000000        40.0000000000
atom        20.0458000000       20.0390000000       19.9967000000 C         0.0000000000         0.0000000000       -41.8744562093      -35.6587102601        6.1495938333
atom        19.9827000000       19.9853000000       21.2567000000 O         0.0000000000         0.0000000000        21.0390150992       17.9076890604     -300.4742730193
atom        19.9829000000       19.9854000000       18.7458000000 O         0.0000000000         0.0000000000        20.8354311101       17.7509811997      294.3241791860
energy      -620.9395669100
charge 0
end
begin
comment generated by PY
lattice        40.0000000000         0.0000000000         0.0000000000
lattice         0.0000000000        40.0000000000         0.0000000000
lattice         0.0000000000         0.0000000000        40.0000000000
atom        19.9618000000       19.9675000000       19.9976000000 C         0.0000000000         0.0000000000        34.7262928007       29.5391802946        5.4525798610
atom        20.0144000000       20.0122000000       21.2402000000 O         0.0000000000         0.0000000000       -17.4428993901      -14.8278117637     -284.9522148468
atom        20.0143000000       20.0122000000       18.7616000000 O         0.0000000000         0.0000000000       -17.2833834106      -14.7113685309      279.5001019252
energy      -631.0050441932
charge 0
end
begin
comment generated by PY
lattice        40.0000000000         0.0000000000         0.0000000000
lattice         0.0000000000        40.0000000000         0.0000000000
lattice         0.0000000000         0.0000000000        40.0000000000
atom        20.0366000000       20.0311000000       19.9978000000 C         0.0000000000         0.0000000000       -33.2752231504      -28.2532216865        5.0440415261
atom        19.9862000000       19.9883000000       21.2403000000 O         0.0000000000         0.0000000000        16.7097199391       14.1892730441     -284.8831854060
atom        19.9863000000       19.9884000000       18.7614000000 O         0.0000000000         0.0000000000        16.5655332112       14.0638986424      279.8394138799
energy      -631.0527291657
charge 0
end
begin
comment generated by PY
lattice        40.0000000000         0.0000000000         0.0000000000
lattice         0.0000000000        40.0000000000         0.0000000000
lattice         0.0000000000         0.0000000000        40.0000000000
atom        19.9593000000       19.9655000000       20.0017000000 C         0.0000000000         0.0000000000        37.2002491833       31.5484288614       -3.1716300338
atom        20.0152000000       20.0129000000       21.2556000000 O         0.0000000000         0.0000000000       -18.5523515743      -15.7323614081     -296.5031686832
atom        20.0153000000       20.0130000000       18.7431000000 O         0.0000000000         0.0000000000       -18.6478576091      -15.8160474533      299.6748187170
energy      -620.9605230338
charge 0
end
begin
comment generated by PY
lattice        40.0000000000         0.0000000000         0.0000000000
lattice         0.0000000000        40.0000000000         0.0000000000
lattice         0.0000000000         0.0000000000        40.0000000000
atom        20.0312000000       20.0265000000       20.0026000000 C         0.0000000000         0.0000000000       -28.3464541592      -24.0850357599       -5.9847389995
atom        19.9883000000       19.9901000000       21.2385000000 O         0.0000000000         0.0000000000        14.1118760547       11.9791898939     -279.2846637929
atom        19.9883000000       19.9900000000       18.7595000000 O         0.0000000000         0.0000000000        14.2345581045       12.1058558660      285.2694097318
energy      -631.4158333012
charge 0
end
begin
comment generated by PY
lattice        40.0000000000         0.0000000000         0.0000000000
lattice         0.0000000000        40.0000000000         0.0000000000
lattice         0.0000000000         0.0000000000        40.0000000000
atom        19.9682000000       19.9729000000       20.0026000000 C         0.0000000000         0.0000000000        29.0042892840       24.6950336779       -5.5168438547
atom        20.0119000000       20.0101000000       21.2457000000 O         0.0000000000         0.0000000000       -14.4366294590      -12.2902287770     -286.6255603451
atom        20.0120000000       20.0102000000       18.7523000000 O         0.0000000000         0.0000000000       -14.5676098250      -12.4048049009      292.1420141998
energy      -627.2563956871
charge 0
end
begin
comment generated by PY
lattice        40.0000000000         0.0000000000         0.0000000000
lattice         0.0000000000        40.0000000000         0.0000000000
lattice         0.0000000000         0.0000000000        40.0000000000
atom        20.0444000000       20.0377000000       20.0033000000 C         0.0000000000         0.0000000000       -40.5563304358      -34.4444831120       -6.3645742044
atom        19.9834000000       19.9859000000       21.2517000000 O         0.0000000000         0.0000000000        20.1857140722       17.1417711852     -292.0400548834
atom        19.9833000000       19.9858000000       18.7458000000 O         0.0000000000         0.0000000000        20.3705963635       17.3027619268      298.4049721483
energy      -622.5641575300
charge 0
end
begin
comment generated by PY
lattice        40.0000000000         0.0000000000         0.0000000000
lattice         0.0000000000        40.0000000000         0.0000000000
lattice         0.0000000000         0.0000000000        40.0000000000
atom        19.9636000000       19.9691000000       20.0026000000 C         0.0000000000         0.0000000000        33.1313065917       28.1335970628       -5.6380702991
atom        20.0136000000       20.0116000000       21.2421000000 O         0.0000000000         0.0000000000       -16.4892094215      -14.0117013331     -283.1061415038
atom        20.0137000000       20.0116000000       18.7560000000 O         0.0000000000         0.0000000000       -16.6420841097      -14.1219457297      288.7439318029
energy      -629.0217222426
charge 0
end
begin
comment generated by PY
lattice        40.0000000000         0.0000000000         0.0000000000
lattice         0.0000000000        40.0000000000         0.0000000000
lattice         0.0000000000         0.0000000000        40.0000000000
atom        20.0378000000       20.0321000000       20.0033000000 C         0.0000000000         0.0000000000       -34.3233569553      -29.1424385829       -7.6872376404
atom        19.9858000000       19.9880000000       21.2362000000 O         0.0000000000         0.0000000000        17.0644817099       14.4773128990     -276.4390156146
atom        19.9858000000       19.9879000000       18.7613000000 O         0.0000000000         0.0000000000        17.2588352454       14.6651756839      284.1269232550
energy      -632.0723675451
charge 0
end
begin
comment generated by PY
lattice        40.0000000000         0.0000000000         0.0000000000
lattice         0.0000000000        40.0000000000         0.0000000000
lattice         0.0000000000         0.0000000000        40.0000000000
atom        19.9609000000       19.9668000000       20.0010000000 C         0.0000000000         0.0000000000        35.7629477475       30.3451128985       -1.8541023458
atom        20.0147000000       20.0124000000       21.2547000000 O         0.0000000000         0.0000000000       -17.8609189250      -15.1437059185     -296.1387931090
atom        20.0147000000       20.0125000000       18.7446000000 O         0.0000000000         0.0000000000       -17.9020688226      -15.2014039194      297.9931954548
energy      -621.8112928348
charge 0
end
begin
comment generated by PY
lattice        40.0000000000         0.0000000000         0.0000000000
lattice         0.0000000000        40.0000000000         0.0000000000
lattice         0.0000000000         0.0000000000        40.0000000000
atom        20.0397000000       20.0337000000       20.0001000000 C         0.0000000000         0.0000000000       -36.2486334119      -30.8048013059       -0.2185366906
atom        19.9851000000       19.9873000000       21.2500000000 O         0.0000000000         0.0000000000        18.1218939176       15.4001896810     -292.5512833361
atom        19.9851000000       19.9873000000       18.7499000000 O         0.0000000000         0.0000000000        18.1266894943       15.4046416249      292.7699190872
energy      -624.7088967655
charge 0
end
begin
comment generated by PY
lattice        40.0000000000         0.0000000000         0.0000000000
lattice         0.0000000000        40.0000000000         0.0000000000
lattice         0.0000000000         0.0000000000        40.0000000000
atom        19.9729000000       19.9769000000       20.0030000000 C         0.0000000000         0.0000000000        24.7283729214       21.0768973976       -6.0945754039
atom        20.0101000000       20.0086000000       21.2496000000 O         0.0000000000         0.0000000000       -12.3036194421      -10.4852365922     -290.0268611680
atom        20.0102000000       20.0087000000       18.7481000000 O         0.0000000000         0.0000000000       -12.4247765398      -10.5916838659      296.1220065719
energy      -625.1952490292
charge 0
end
begin
comment generated by PY
lattice        40.0000000000         0.0000000000         0.0000000000
lattice         0.0000000000        40.0000000000         0.0000000000
lattice         0.0000000000         0.0000000000        40.0000000000
atom        20.0278000000       20.0236000000       19.9997000000 C         0.0000000000         0.0000000000       -25.3487850344      -21.5663519776        0.5967742857
atom        19.9896000000       19.9911000000       21.2494000000 O         0.0000000000         0.0000000000        12.6793363674       10.7874194795     -292.1176280944
atom        19.9896000000       19.9911000000       18.7508000000 O         0.0000000000         0.0000000000        12.6694356065       10.7789424981      291.5208518693
energy      -626.0160100770
charge 0
end
begin
comment generated by PY
lattice        40.0000000000         0.0000000000         0.0000000000
lattice         0.0000000000        40.0000000000         0.0000000000
lattice         0.0000000000         0.0000000000        40.0000000000
atom        19.9795000000       19.9826000000       19.9995000000 C         0.0000000000         0.0000000000        18.6456687548       15.8025957918        1.1568877733
atom        20.0077000000       20.0065000000       21.2409000000 O         0.0000000000         0.0000000000        -9.3305466545       -7.9078296339     -283.9829547420
atom        20.0077000000       20.0065000000       18.7595000000 O         0.0000000000         0.0000000000        -9.3151221002       -7.8947661579      282.8256359688
energy      -631.3431422137
charge 0
end
begin
comment generated by PY
lattice        40.0000000000         0.0000000000         0.0000000000
lattice         0.0000000000        40.0000000000         0.0000000000
lattice         0.0000000000         0.0000000000        40.0000000000
atom        20.0156000000       20.0132000000       19.9976000000 C         0.0000000000         0.0000000000       -14.1857326582      -12.0362808455        5.3541644442
atom        19.9941000000       19.9950000000       21.2422000000 O         0.0000000000         0.0000000000         7.1312533849        6.0410539974     -286.6631432451
atom        19.9942000000       19.9950000000       18.7595000000 O         0.0000000000         0.0000000000         7.0544792733        5.9952268481      281.3084188009
energy      -631.1563260078
charge 0
end
begin
comment generated by PY
lattice        40.0000000000         0.0000000000         0.0000000000
lattice         0.0000000000        40.0000000000         0.0000000000
lattice         0.0000000000         0.0000000000        40.0000000000
atom        19.9778000000       19.9811000000       20.0033000000 C         0.0000000000         0.0000000000        20.1630863581       17.1272563644       -7.7776597610
atom        20.0083000000       20.0070000000       21.2366000000 O         0.0000000000         0.0000000000       -10.0127537316       -8.5035552502     -276.5158164781
atom        20.0084000000       20.0071000000       18.7609000000 O         0.0000000000         0.0000000000       -10.1503326265       -8.6237011141      284.2932931785
energy      -632.8532971336
charge 0
end
begin
comment generated by PY
lattice        40.0000000000         0.0000000000         0.0000000000
lattice         0.0000000000        40.0000000000         0.0000000000
lattice         0.0000000000         0.0000000000        40.0000000000
atom        20.0068000000       20.0058000000       19.9966000000 C         0.0000000000         0.0000000000        -6.2194379926       -5.2877786404        6.3390391829
atom        19.9974000000       19.9978000000       21.2598000000 O         0.0000000000         0.0000000000         3.1332277558        2.6656078032     -302.9298036895
atom        19.9975000000       19.9979000000       18.7428000000 O         0.0000000000         0.0000000000         3.0862002367        2.6221678372      296.5911745066
energy      -621.3435677072
charge 0
end
begin
comment generated by PY
lattice        40.0000000000         0.0000000000         0.0000000000
lattice         0.0000000000        40.0000000000         0.0000000000
lattice         0.0000000000         0.0000000000        40.0000000000
atom        19.9990000000       19.9992000000       20.0021000000 C         0.0000000000         0.0000000000         0.9320594694        0.7335104611       -3.8583430266
atom        20.0004000000       20.0003000000       21.2588000000 O         0.0000000000         0.0000000000        -0.4649520598       -0.3658649785     -298.8163895156
atom        20.0004000000       20.0003000000       18.7396000000 O         0.0000000000         0.0000000000        -0.4671304702       -0.3676454826      302.6754656028
energy      -620.7406448952
charge 0
end
begin
comment generated by PY
lattice        40.0000000000         0.0000000000         0.0000000000
lattice         0.0000000000        40.0000000000         0.0000000000
lattice         0.0000000000         0.0000000000        40.0000000000
atom        19.9910000000       19.9923000000       19.9972000000 C         0.0000000000         0.0000000000         8.2222554631        7.0287148905        5.9385044406
atom        20.0034000000       20.0029000000       21.2485000000 O         0.0000000000         0.0000000000        -4.1275566543       -3.5284224419     -292.8656540838
atom        20.0034000000       20.0029000000       18.7536000000 O         0.0000000000         0.0000000000        -4.0947088089       -3.5003055091      286.9272196432
energy      -627.8269857633
charge 0
end
begin
comment generated by PY
lattice        40.0000000000         0.0000000000         0.0000000000
lattice         0.0000000000        40.0000000000         0.0000000000
lattice         0.0000000000         0.0000000000        40.0000000000
atom        20.0060000000       20.0051000000       19.9992000000 C         0.0000000000         0.0000000000        -5.5164421988       -4.6527775092        1.5785654576
atom        19.9977000000       19.9981000000       21.2539000000 O         0.0000000000         0.0000000000         2.7609953556        2.3287057559     -296.3901238908
atom        19.9977000000       19.9981000000       18.7467000000 O         0.0000000000         0.0000000000         2.7554498432        2.3240687534      294.8124523727
energy      -624.2860825736
charge 0
end
begin
comment generated by PY
lattice        40.0000000000         0.0000000000         0.0000000000
lattice         0.0000000000        40.0000000000         0.0000000000
lattice         0.0000000000         0.0000000000        40.0000000000
atom        19.9900000000       19.9915000000       20.0024000000 C         0.0000000000         0.0000000000         9.0974728273        7.7409393106       -5.3848414573
atom        20.0037000000       20.0032000000       21.2415000000 O         0.0000000000         0.0000000000        -4.5201464126       -3.8557300678     -282.2968907322
atom        20.0038000000       20.0032000000       18.7567000000 O         0.0000000000         0.0000000000        -4.5773264147       -3.8852092428      287.6816521895
energy      -630.7126561428
charge 0
end
begin
comment generated by PY
lattice        40.0000000000         0.0000000000         0.0000000000
lattice         0.0000000000        40.0000000000         0.0000000000
lattice         0.0000000000         0.0000000000        40.0000000000
atom        20.0176000000       20.0150000000       20.0016000000 C         0.0000000000         0.0000000000       -16.0994630115      -13.7045367588       -2.9370388385
atom        19.9934000000       19.9944000000       21.2583000000 O         0.0000000000         0.0000000000         8.0355247022        6.8401635624     -298.7117513865
atom        19.9934000000       19.9944000000       18.7405000000 O         0.0000000000         0.0000000000         8.0639283093        6.8643731963      301.6486002250
energy      -620.8297867166
charge 0
end
begin
comment generated by PY
lattice        40.0000000000         0.0000000000         0.0000000000
lattice         0.0000000000        40.0000000000         0.0000000000
lattice         0.0000000000         0.0000000000        40.0000000000
atom        19.9727000000       19.9768000000       20.0030000000 C         0.0000000000         0.0000000000        24.9132714909       21.1642330738       -6.2166196097
atom        20.0102000000       20.0087000000       21.2479000000 O         0.0000000000         0.0000000000       -12.3939669767      -10.5387592410     -288.4067964346
atom        20.0103000000       20.0087000000       18.7498000000 O         0.0000000000         0.0000000000       -12.5193045141      -10.6254638328      294.6228229838
energy      -626.1781870653
charge 0
end
begin
comment generated by PY
lattice        40.0000000000         0.0000000000         0.0000000000
lattice         0.0000000000        40.0000000000         0.0000000000
lattice         0.0000000000         0.0000000000        40.0000000000
atom        20.0218000000       20.0185000000       20.0026000000 C         0.0000000000         0.0000000000       -19.8511801111      -16.8405143417       -5.7476469792