begin
comment generated by PY
lattice        40.0000000000         0.0000000000         0.0000000000
lattice         0.0000000000        40.0000000000         0.0000000000
lattice         0.0000000000         0.0000000000        40.0000000000
atom        20.0000000000       20.0000000000       20.4192000000 H         0.0000000000         0.0000000000         0.0000000000       -0.0000000000     -148.2310793674
atom        20.0000000000       20.0000000000       19.5808000000 H         0.0000000000         0.0000000000        -0.0000000000        0.0000000000      148.2310793674
energy      -185.8392962728
charge 0
end
begin
comment generated by PY
lattice        40.0000000000         0.0000000000         0.0000000000
lattice         0.0000000000        40.0000000000         0.0000000000
lattice         0.0000000000         0.0000000000        40.0000000000
atom        20.0000000000       20.0000000000       20.3948000000 H         0.0000000000         0.0000000000        -0.0000000000       -0.0000000000     -136.7070167937
atom        20.0000000000       20.0000000000       19.6052000000 H         0.0000000000         0.0000000000         0.0000000000        0.0000000000      136.7070167937
energy      -192.8166752588
charge 0
end
begin
comment generated by PY
lattice        40.0000000000         0.0000000000         0.0000000000
lattice         0.0000000000        40.0000000000         0.0000000000
lattice         0.0000000000         0.0000000000        40.0000000000
atom        20.0000000000       20.0000000000       20.4634000000 H         0.0000000000         0.0000000000        -0.0000000000        0.0000000000     -157.0737084057
atom        20.0000000000       20.0000000000       19.5366000000 H         0.0000000000         0.0000000000         0.0000000000       -0.0000000000      157.0737084057
energy      -172.2548567357
charge 0
end
begin
comment generated by PY
lattice        40.0000000000         0.0000000000         0.0000000000
lattice         0.0000000000        40.0000000000         0.0000000000
lattice         0.0000000000         0.0000000000        40.0000000000
atom        20.0000000000       20.0000000000       20.3731000000 H         0.0000000000         0.0000000000        -0.0000000000        0.0000000000     -120.2664785924
atom        20.0000000000       20.0000000000       19.6269000000 H         0.0000000000         0.0000000000         0.0000000000       -0.0000000000      120.2664785924
energy      -198.4183337582
charge 0
end
begin
comment generated by PY
lattice        40.0000000000         0.0000000000         0.0000000000
lattice         0.0000000000        40.0000000000         0.0000000000
lattice         0.0000000000         0.0000000000        40.0000000000
atom        20.0000000000       20.0000000000       20.4193000000 H         0.0000000000         0.0000000000        -0.0000000000       -0.0000000000     -148.2664542937
atom        20.0000000000       20.0000000000       19.5807000000 H         0.0000000000         0.0000000000         0.0000000000        0.0000000000      148.2664542937
energy      -185.8096467277
charge 0
end
begin
comment generated by PY
lattice        40.0000000000         0.0000000000         0.0000000000
lattice         0.0000000000        40.0000000000         0.0000000000
lattice         0.0000000000         0.0000000000        40.0000000000
atom        20.0000000000       20.0000000000       20.4503000000 H         0.0000000000         0.0000000000        -0.0000000000        0.0000000000     -155.6784395164
atom        20.0000000000       20.0000000000       19.5497000000 H         0.0000000000         0.0000000000         0.0000000000       -0.0000000000      155.6784395164
energy      -176.3536439862
charge 0
end
begin
comment generated by PY
lattice        40.0000000000         0.0000000000         0.0000000000
lattice         0.0000000000        40.0000000000         0.0000000000
lattice         0.0000000000         0.0000000000        40.0000000000
atom        20.0000000000       20.0000000000       20.3760000000 H         0.0000000000         0.0000000000        -0.0000000000        0.0000000000     -122.8849111611
atom        20.0000000000       20.0000000000       19.6240000000 H         0.0000000000         0.0000000000         0.0000000000       -0.0000000000      122.8849111611
energy      -197.7130942537
charge 0
end
begin
comment generated by PY
lattice        40.0000000000         0.0000000000         0.0000000000
lattice         0.0000000000        40.0000000000         0.0000000000
lattice         0.0000000000         0.0000000000        40.0000000000
atom        20.0000000000       20.0000000000       20.4400000000 H         0.0000000000         0.0000000000        -0.0000000000       -0.0000000000     -153.9271643414
atom        20.0000000000       20.0000000000       19.5600000000 H         0.0000000000         0.0000000000         0.0000000000        0.0000000000      153.9271643414
energy      -179.5435376081
charge 0
end
begin
comment generated by PY
lattice        40.0000000000         0.0000000000         0.0000000000
lattice         0.0000000000        40.0000000000         0.0000000000
lattice         0.0000000000         0.0000000000        40.0000000000
atom        20.0000000000       20.0000000000       20.4192000000 H         0.0000000000         0.0000000000         0.0000000000       -0.0000000000     -148.2310793674
atom        20.0000000000       20.0000000000       19.5808000000 H         0.0000000000         0.0000000000        -0.0000000000        0.0000000000      148.2310793674
energy      -185.8392962728
charge 0
end
begin
comment generated by PY
lattice        40.0000000000         0.0000000000         0.0000000000
lattice         0.0000000000        40.0000000000         0.0000000000
lattice         0.0000000000         0.0000000000        40.0000000000
atom        20.0000000000       20.0000000000       20.3987000000 H         0.0000000000         0.0000000000        -0.0000000000       -0.0000000000     -138.9778933061
atom        20.0000000000       20.0000000000       19.6013000000 H         0.0000000000         0.0000000000         0.0000000000        0.0000000000      138.9778933061
energy      -191.7413774671
charge 0
end
begin
comment generated by PY
lattice        40.0000000000         0.0000000000         0.0000000000
lattice         0.0000000000        40.0000000000         0.0000000000
lattice         0.0000000000         0.0000000000        40.0000000000
atom        20.0000000000       20.0000000000       20.4621000000 H         0.0000000000         0.0000000000        -0.0000000000        0.0000000000     -156.9736896937
atom        20.0000000000       20.0000000000       19.5379000000 H         0.0000000000         0.0000000000         0.0000000000       -0.0000000000      156.9736896937
energy      -172.6631054302
charge 0
end
begin
comment generated by PY
lattice        40.0000000000         0.0000000000         0.0000000000
lattice         0.0000000000        40.0000000000         0.0000000000
lattice         0.0000000000         0.0000000000        40.0000000000
atom        20.0000000000       20.0000000000       20.4004000000 H         0.0000000000         0.0000000000        -0.0000000000       -0.0000000000     -139.9125284161
atom        20.0000000000       20.0000000000       19.5996000000 H         0.0000000000         0.0000000000         0.0000000000        0.0000000000      139.9125284161
energy      -191.2672512209
charge 0
end
begin
comment generated by PY
lattice        40.0000000000         0.0000000000         0.0000000000
lattice         0.0000000000        40.0000000000         0.0000000000
lattice         0.0000000000         0.0000000000        40.0000000000
atom        20.0000000000       20.0000000000       20.3878000000 H         0.0000000000         0.0000000000        -0.0000000000       -0.0000000000     -132.1478239521
atom        20.0000000000       20.0000000000       19.6122000000 H         0.0000000000         0.0000000000         0.0000000000        0.0000000000      132.1478239521
energy      -194.6994373893
charge 0
end
begin
comment generated by PY
lattice        40.0000000000         0.0000000000         0.0000000000
lattice         0.0000000000        40.0000000000         0.0000000000
lattice         0.0000000000         0.0000000000        40.0000000000
atom        20.0000000000       20.0000000000       20.4592000000 H         0.0000000000         0.0000000000        -0.0000000000        0.0000000000     -156.7201606721
atom        20.0000000000       20.0000000000       19.5408000000 H         0.0000000000         0.0000000000         0.0000000000       -0.0000000000      156.7201606721
energy      -173.5728061406
charge 0
end
begin
comment generated by PY
lattice        40.0000000000         0.0000000000         0.0000000000
lattice         0.0000000000        40.0000000000         0.0000000000
lattice         0.0000000000         0.0000000000        40.0000000000
atom        20.0000000000       20.0000000000       20.4483000000 H         0.0000000000         0.0000000000        -0.0000000000       -0.0000000000     -155.3865695680
atom        20.0000000000       20.0000000000       19.5517000000 H         0.0000000000         0.0000000000         0.0000000000        0.0000000000      155.3865695680
energy      -176.9757570292
charge 0
end
begin
comment generated by PY
lattice        40.0000000000         0.0000000000         0.0000000000
lattice         0.0000000000        40.0000000000         0.0000000000
lattice         0.0000000000         0.0000000000        40.0000000000
atom        20.0000000000       20.0000000000       20.3717000000 H         0.0000000000         0.0000000000        -0.0000000000       -0.0000000000     -118.9498701009
atom        20.0000000000       20.0000000000       19.6283000000 H         0.0000000000         0.0000000000         0.0000000000        0.0000000000      118.9498701009
energy      -198.7532607757
charge 0
end
begin
comment generated by PY
lattice        40.0000000000         0.0000000000         0.0000000000
lattice         0.0000000000        40.0000000000         0.0000000000
lattice         0.0000000000         0.0000000000        40.0000000000
atom        20.0000000000       20.0000000000       20.4555000000 H         0.0000000000         0.0000000000        -0.0000000000        0.0000000000     -156.3351144712
atom        20.0000000000       20.0000000000       19.5445000000 H         0.0000000000         0.0000000000         0.0000000000       -0.0000000000      156.3351144712
energy      -174.7311114884
charge 0
end
begin
comment generated by PY
lattice        40.0000000000         0.0000000000         0.0000000000
lattice         0.0000000000        40.0000000000         0.0000000000
lattice         0.0000000000         0.0000000000        40.0000000000
atom        20.0000000000       20.0000000000       20.3728000000 H         0.0000000000         0.0000000000        -0.0000000000        0.0000000000     -119.9874314220
atom        20.0000000000       20.0000000000       19.6272000000 H         0.0000000000         0.0000000000         0.0000000000       -0.0000000000      119.9874314220
energy      -198.4904142264
charge 0
end
begin
comment generated by PY
lattice        40.0000000000         0.0000000000         0.0000000000
lattice         0.0000000000        40.0000000000         0.0000000000
lattice         0.0000000000         0.0000000000        40.0000000000
atom        20.0000000000       20.0000000000       20.4656000000 H         0.0000000000         0.0000000000        -0.0000000000        0.0000000000     -157.2269839163
atom        20.0000000000       20.0000000000       19.5344000000 H         0.0000000000         0.0000000000         0.0000000000       -0.0000000000      157.2269839163
energy      -171.5634113518
charge 0
end
begin
comment generated by PY
lattice        40.0000000000         0.0000000000         0.0000000000
lattice         0.0000000000        40.0000000000         0.0000000000
lattice         0.0000000000         0.0000000000        40.0000000000
atom        20.0000000000       20.0000000000       20.3909000000 H         0.0000000000         0.0000000000        -0.0000000000       -0.0000000000     -134.2462476680
atom        20.0000000000       20.0000000000       19.6091000000 H         0.0000000000         0.0000000000         0.0000000000        0.0000000000      134.2462476680
energy      -193.8735323652
charge 0
end
begin
comment generated by PY
lattice        40.0000000000         0.0000000000         0.0000000000
lattice         0.0000000000        40.0000000000         0.0000000000
lattice         0.0000000000         0.0000000000        40.0000000000
atom        20.0000000000       20.0000000000       20.4092000000 H         0.0000000000         0.0000000000        -0.0000000000        0.0000000000     -144.2408204611
atom        20.0000000000       20.0000000000       19.5908000000 H         0.0000000000         0.0000000000         0.0000000000       -0.0000000000      144.2408204611
energy      -188.7655071700
charge 0
end
begin
comment generated by PY
lattice        40.0000000000         0.0000000000         0.0000000000
lattice         0.0000000000        40.0000000000         0.0000000000
lattice         0.0000000000         0.0000000000        40.0000000000
atom        20.0000000000       20.0000000000       20.4306000000 H         0.0000000000         0.0000000000         0.0000000000       -0.0000000000     -151.7454654276
atom        20.0000000000       20.0000000000       19.5694000000 H         0.0000000000         0.0000000000        -0.0000000000        0.0000000000      151.7454654276
energy      -182.4176964450
charge 0
end
begin
comment generated by PY
lattice        40.0000000000         0.0000000000         0.0000000000
lattice         0.0000000000        40.0000000000         0.0000000000
lattice         0.0000000000         0.0000000000        40.0000000000
atom        20.0000000000       20.0000000000       20.4004000000 H         0.0000000000         0.0000000000        -0.0000000000       -0.0000000000     -139.9125284161
atom        20.0000000000       20.0000000000       19.5996000000 H         0.0000000000         0.0000000000         0.0000000000        0.0000000000      139.9125284161
energy      -191.2672512209
charge 0
end
begin
comment generated by PY
lattice        40.0000000000         0.0000000000         0.0000000000
lattice         0.0000000000        40.0000000000         0.0000000000
lattice         0.0000000000         0.0000000000        40.0000000000
atom        20.0000000000       20.0000000000       20.4741000000 H         0.0000000000         0.0000000000        -0.0000000000        0.0000000000     -157.6254635029
atom        20.0000000000       20.0000000000       19.5259000000 H         0.0000000000         0.0000000000         0.0000000000       -0.0000000000      157.6254635029
energy      -168.8868105341
charge 0
end
begin
comment generated by PY
lattice        40.0000000000         0.0000000000         0.0000000000
lattice         0.0000000000        40.0000000000         0.0000000000
lattice         0.0000000000         0.0000000000        40.0000000000
atom        20.0000000000       20.0000000000       20.3966000000 H         0.0000000000         0.0000000000        -0.0000000000       -0.0000000000     -137.7778654731
atom        20.0000000000       20.0000000000       19.6034000000 H         0.0000000000         0.0000000000         0.0000000000        0.0000000000      137.7778654731
energy      -192.3225873321
charge 0
end
begin
comment generated by PY
lattice        40.0000000000         0.0000000000         0.0000000000
lattice         0.0000000000        40.0000000000         0.0000000000
lattice         0.0000000000         0.0000000000        40.0000000000
atom        20.0000000000       20.0000000000       20.4583000000 H         0.0000000000         0.0000000000        -0.0000000000        0.0000000000     -156.6327943671
atom        20.0000000000       20.0000000000       19.5417000000 H         0.0000000000         0.0000000000         0.0000000000       -0.0000000000      156.6327943671
energy      -173.8548146728
charge 0
end
begin
comment generated by PY
lattice        40.0000000000         0.0000000000         0.0000000000
lattice         0.0000000000        40.0000000000         0.0000000000
lattice         0.0000000000         0.0000000000        40.0000000000
atom        20.0000000000       20.0000000000       20.4014000000 H         0.0000000000         0.0000000000        -0.0000000000       -0.0000000000     -140.4466566925
atom        20.0000000000       20.0000000000       19.5986000000 H         0.0000000000         0.0000000000         0.0000000000        0.0000000000      140.4466566925
energy      -190.9868909688
charge 0
end
begin
comment generated by PY
lattice        40.0000000000         0.0000000000         0.0000000000
lattice         0.0000000000        40.0000000000         0.0000000000
lattice         0.0000000000         0.0000000000        40.0000000000
atom        20.0000000000       20.0000000000       20.4006000000 H         0.0000000000         0.0000000000        -0.0000000000       -0.0000000000     -140.0196978746
atom        20.0000000000       20.0000000000       19.5994000000 H         0.0000000000         0.0000000000         0.0000000000        0.0000000000      140.0196978746
energy      -191.2112652880
charge 0
end
begin
comment generated by PY
lattice        40.0000000000         0.0000000000         0.0000000000
lattice         0.0000000000        40.0000000000         0.0000000000
lattice         0.0000000000         0.0000000000        40.0000000000
atom        20.0000000000       20.0000000000       20.4576000000 H         0.0000000000         0.0000000000        -0.0000000000        0.0000000000     -156.5621166824
atom        20.0000000000       20.0000000000       19.5424000000 H         0.0000000000         0.0000000000         0.0000000000       -0.0000000000      156.5621166824
energy      -174.0740437103
charge 0
end
begin
comment generated by PY
lattice        40.0000000000         0.0000000000         0.0000000000
lattice         0.0000000000        40.0000000000         0.0000000000
lattice         0.0000000000         0.0000000000        40.0000000000
atom        20.0000000000       20.0000000000       20.4034000000 H         0.0000000000         0.0000000000        -0.0000000000       -0.0000000000     -141.4813895949
atom        20.0000000000       20.0000000000       19.5966000000 H         0.0000000000         0.0000000000         0.0000000000        0.0000000000      141.4813895949
energy      -190.4230209204
charge 0
end
begin
comment generated by PY
lattice        40.0000000000         0.0000000000         0.0000000000
lattice         0.0000000000        40.0000000000         0.0000000000
lattice         0.0000000000         0.0000000000        40.0000000000
atom        20.0000000000       20.0000000000       20.3994000000 H         0.0000000000         0.0000000000        -0.0000000000       -0.0000000000     -139.3669181155
atom        20.0000000000       20.0000000000       19.6006000000 H         0.0000000000         0.0000000000         0.0000000000        0.0000000000      139.3669181155
energy      -191.5465342418
charge 0
end
begin
comment generated by PY
lattice        40.0000000000         0.0000000000         0.0000000000
lattice         0.0000000000        40.0000000000         0.0000000000
lattice         0.0000000000         0.0000000000        40.0000000000
atom        20.0000000000       20.0000000000       20.4486000000 H         0.0000000000         0.0000000000        -0.0000000000       -0.0000000000     -155.4317774384
atom        20.0000000000       20.0000000000       19.5514000000 H         0.0000000000         0.0000000000         0.0000000000        0.0000000000      155.4317774384
energy      -176.8825155181
charge 0
end
begin
comment generated by PY
lattice        40.0000000000         0.0000000000         0.0000000000
lattice         0.0000000000        40.0000000000         0.0000000000
lattice         0.0000000000         0.0000000000        40.0000000000
atom        20.0000000000       20.0000000000       20.3640000000 H         0.0000000000         0.0000000000        -0.0000000000       -0.0000000000     -111.0556303276
atom        20.0000000000       20.0000000000       19.6360000000 H         0.0000000000         0.0000000000         0.0000000000        0.0000000000      111.0556303276
energy      -200.5258605849
charge 0
end
begin
comment generated by PY
lattice        40.0000000000         0.0000000000         0.0000000000
lattice         0.0000000000        40.0000000000         0.0000000000
lattice         0.0000000000         0.0000000000        40.0000000000
atom        20.0000000000       20.0000000000       20.4513000000 H         0.0000000000         0.0000000000        -0.0000000000        0.0000000000     -155.8161484149
atom        20.0000000000       20.0000000000       19.5487000000 H         0.0000000000         0.0000000000         0.0000000000       -0.0000000000      155.8161484149
energy      -176.0421594757
charge 0
end
begin
comment generated by PY
lattice        40.0000000000         0.0000000000         0.0000000000
lattice         0.0000000000        40.0000000000         0.0000000000
lattice         0.0000000000         0.0000000000        40.0000000000
atom        20.0000000000       20.0000000000       20.4304000000 H         0.0000000000         0.0000000000        -0.0000000000       -0.0000000000     -151.6923446660
atom        20.0000000000       20.0000000000       19.5696000000 H         0.0000000000         0.0000000000         0.0000000000        0.0000000000      151.6923446660
energy      -182.4783814885
charge 0
end
begin
comment generated by PY
lattice        40.0000000000         0.0000000000         0.0000000000
lattice         0.0000000000        40.0000000000         0.0000000000
lattice         0.0000000000         0.0000000000        40.0000000000
atom        20.0000000000       20.0000000000       20.3776000000 H         0.0000000000         0.0000000000        -0.0000000000       -0.0000000000     -124.2680606830
atom        20.0000000000       20.0000000000       19.6224000000 H         0.0000000000         0.0000000000         0.0000000000        0.0000000000      124.2680606830
energy      -197.3176263909
charge 0
end
begin
comment generated by PY
lattice        40.0000000000         0.0000000000         0.0000000000
lattice         0.0000000000        40.0000000000         0.0000000000
lattice         0.0000000000         0.0000000000        40.0000000000
atom        20.0000000000       20.0000000000       20.4168000000 H         0.0000000000         0.0000000000         0.0000000000       -0.0000000000     -147.3560364356
atom        20.0000000000       20.0000000000       19.5832000000 H         0.0000000000         0.0000000000        -0.0000000000        0.0000000000      147.3560364356
energy      -186.5487159019
charge 0
end
begin
comment generated by PY
lattice        40.0000000000         0.0000000000         0.0000000000
lattice         0.0000000000        40.0000000000         0.0000000000
lattice         0.0000000000         0.0000000000        40.0000000000
atom        20.0000000000       20.0000000000       20.4680000000 H         0.0000000000         0.0000000000        -0.0000000000        0.0000000000     -157.3710686018
atom        20.0000000000       20.0000000000       19.5320000000 H         0.0000000000         0.0000000000         0.0000000000       -0.0000000000      157.3710686018
energy      -170.8083916923
charge 0
end
begin
comment generated by PY
lattice        40.0000000000         0.0000000000         0.0000000000
lattice         0.0000000000        40.0000000000         0.0000000000
lattice         0.0000000000         0.0000000000        40.0000000000
atom        20.0000000000       20.0000000000       20.4039000000 H         0.0000000000         0.0000000000        -0.0000000000       -0.0000000000     -141.7329791003
atom        20.0000000000       20.0000000000       19.5961000000 H         0.0000000000         0.0000000000         0.0000000000        0.0000000000      141.7329791003
energy      -190.2814147707
charge 0
end
begin
comment generated by PY
lattice        40.0000000000         0.0000000000         0.0000000000
lattice         0.0000000000        40.0000000000         0.0000000000
lattice         0.0000000000         0.0000000000        40.0000000000
atom        20.0000000000       20.0000000000       20.4273000000 H         0.0000000000         0.0000000000         0.0000000000       -0.0000000000     -150.8325786584
atom        20.0000000000       20.0000000000       19.5727000000 H         0.0000000000         0.0000000000        -0.0000000000        0.0000000000      150.8325786584
energy      -183.4162172111
charge 0
end
begin
comment generated by PY
lattice        40.0000000000         0.0000000000         0.0000000000
lattice         0.0000000000        40.0000000000         0.0000000000
lattice         0.0000000000         0.0000000000        40.0000000000
atom        20.0000000000       20.0000000000       20.4183000000 H         0.0000000000         0.0000000000        -0.0000000000       -0.0000000000     -147.9088394681
atom        20.0000000000       20.0000000000       19.5817000000 H         0.0000000000         0.0000000000         0.0000000000        0.0000000000      147.9088394681
energy      -186.1058181391
charge 0
end
begin
comment generated by PY
lattice        40.0000000000         0.0000000000         0.0000000000
lattice         0.0000000000        40.0000000000         0.0000000000
lattice         0.0000000000         0.0000000000        40.0000000000
atom        20.0000000000       20.0000000000       20.4105000000 H         0.0000000000         0.0000000000        -0.0000000000       -0.0000000000     -144.8126973129
atom        20.0000000000       20.0000000000       19.5895000000 H         0.0000000000         0.0000000000         0.0000000000        0.0000000000      144.8126973129
energy      -188.3897385105
charge 0
end
begin
comment generated by PY
lattice        40.0000000000         0.0000000000         0.0000000000
lattice         0.0000000000        40.0000000000         0.0000000000
lattice         0.0000000000         0.0000000000        40.0000000000
atom        20.0000000000       20.0000000000       20.4307000000 H         0.0000000000         0.0000000000        -0.0000000000       -0.0000000000     -151.7718643845
atom        20.0000000000       20.0000000000       19.5693000000 H         0.0000000000         0.0000000000         0.0000000000        0.0000000000      151.7718643845
energy      -182.3873450168
charge 0
end
begin
comment generated by PY
lattice        40.0000000000         0.0000000000         0.0000000000
lattice         0.0000000000        40.0000000000         0.0000000000
lattice         0.0000000000         0.0000000000        40.0000000000
atom        20.0000000000       20.0000000000       20.3916000000 H         0.0000000000         0.0000000000        -0.0000000000       -0.0000000000     -134.7022275364
atom        20.0000000000       20.0000000000       19.6084000000 H         0.0000000000         0.0000000000         0.0000000000        0.0000000000      134.7022275364
energy      -193.6852645523
charge 0
end
begin
comment generated by PY
lattice        40.0000000000         0.0000000000         0.0000000000
lattice         0.0000000000        40.0000000000         0.0000000000
lattice         0.0000000000         0.0000000000        40.0000000000
atom        20.0000000000       20.0000000000       20.4719000000 H         0.0000000000         0.0000000000        -0.0000000000        0.0000000000     -157.5525931683
atom        20.0000000000       20.0000000000       19.5281000000 H         0.0000000000         0.0000000000         0.0000000000       -0.0000000000      157.5525931683
energy      -169.5801868602
charge 0
end
begin
comment generated by PY
lattice        40.0000000000         0.0000000000         0.0000000000
lattice         0.0000000000        40.0000000000         0.0000000000
lattice         0.0000000000         0.0000000000        40.0000000000
atom        20.0000000000       20.0000000000       20.3871000000 H         0.0000000000         0.0000000000        -0.0000000000       -0.0000000000     -131.6561758023
atom        20.0000000000       20.0000000000       19.6129000000 H         0.0000000000         0.0000000000         0.0000000000        0.0000000000      131.6561758023
energy      -194.8841050740
charge 0
end
begin
comment generated by PY
lattice        40.0000000000         0.0000000000         0.0000000000
lattice         0.0000000000        40.0000000000         0.0000000000
lattice         0.0000000000         0.0000000000        40.0000000000
atom        20.0000000000       20.0000000000       20.4493000000 H         0.0000000000         0.0000000000        -0.0000000000       -0.0000000000     -155.5353286078
atom        20.0000000000       20.0000000000       19.5507000000 H         0.0000000000         0.0000000000         0.0000000000        0.0000000000      155.5353286078
energy      -176.6648459624
charge 0
end
begin
comment generated by PY
lattice        40.0000000000         0.0000000000         0.0000000000
lattice         0.0000000000        40.0000000000         0.0000000000
lattice         0.0000000000         0.0000000000        40.0000000000
atom        20.0000000000       20.0000000000       20.3813000000 H         0.0000000000         0.0000000000        -0.0000000000       -0.0000000000     -127.3087497281