begin
comment generated by PY
lattice        40.0000000000         0.0000000000         0.0000000000
lattice         0.0000000000        40.0000000000         0.0000000000
lattice         0.0000000000         0.0000000000        40.0000000000
atom        17.9767000000       19.9820000000       20.2996000000 H         0.0000000000         0.0000000000       123.4444808923        0.7225235619      -10.6661112593
atom        19.3137000000       20.0081000000       19.0209000000 H         0.0000000000         0.0000000000       -24.3580476377       -1.9459321473      118.3524711163
atom        19.0425000000       19.9903000000       20.0763000000 C         0.0000000000         0.0000000000       171.0473574904       -1.4186998592      137.5143021916
atom        22.0480000000       21.1297000000       20.3517000000 O         0.0000000000         0.0000000000      -179.0406089704     -288.4779754350       46.9306296692
atom        22.0696000000       18.8721000000       20.3473000000 O         0.0000000000         0.0000000000      -184.7533226193      284.9630428797       48.1388639302
atom        21.4393000000       19.9946000000       20.5030000000 N         0.0000000000         0.0000000000       220.9123349936        2.4512472549      -65.7458327512
atom        19.9401000000       19.9792000000       21.0337000000 N         0.0000000000         0.0000000000      -127.2513941489        3.7064427450     -274.5241459572
energy     -1337.7098104894
charge 0
end
begin
comment generated by PY
lattice        40.0000000000         0.0000000000         0.0000000000
lattice         0.0000000000        40.0000000000         0.0000000000
lattice         0.0000000000         0.0000000000        40.0000000000
atom        18.1076000000       19.8685000000       21.0862000000 H         0.0000000000         0.0000000000       125.5789467269       -8.6543111607      -18.6061214819
atom        19.6826000000       19.4211000000       21.9497000000 H         0.0000000000         0.0000000000       -41.1099296008       46.0467220716      -97.8963027525
atom        19.2026000000       19.7969000000       21.0630000000 C         0.0000000000         0.0000000000       123.6273958990       57.5120421064     -167.5336107590
atom        22.2445000000       20.6847000000       19.5182000000 O         0.0000000000         0.0000000000      -238.6243146548     -141.7676572631      218.5576067170
atom        21.7959000000       19.2508000000       21.2558000000 O         0.0000000000         0.0000000000      -101.4876817670      223.6299623307     -225.0120303011
atom        21.4121000000       20.1106000000       20.3387000000 N         0.0000000000         0.0000000000       204.7293218456     -100.5804560768       -5.0395502824
atom        19.8825000000       20.1549000000       20.0004000000 N         0.0000000000         0.0000000000       -72.7137615095      -76.1868620080      295.5310119203
energy     -1336.8451068557
charge 0
end
begin
comment generated by PY
lattice        40.0000000000         0.0000000000         0.0000000000
lattice         0.0000000000        40.0000000000         0.0000000000
lattice         0.0000000000         0.0000000000        40.0000000000
atom        18.1560000000       20.4645000000       20.1178000000 H         0.0000000000         0.0000000000       106.3686775193      -37.2477891540        1.9174060700
atom        19.5367000000       20.2520000000       18.9421000000 H         0.0000000000         0.0000000000       -22.5646412303        5.3993443682      126.8289653962
atom        19.1822000000       20.2193000000       19.9900000000 C         0.0000000000         0.0000000000       128.4064588280     -100.0374839240      141.7875725483
atom        21.6904000000       19.9461000000       19.2962000000 O         0.0000000000         0.0000000000       -77.5335346708      -17.6127498477      321.9998962097
atom        22.3464000000       20.1117000000       21.4488000000 O         0.0000000000         0.0000000000      -269.3520061768      -63.3160802569     -216.8766479776
atom        21.4174000000       19.9024000000       20.5694000000 N         0.0000000000         0.0000000000       216.1139657304       62.7902187226     -100.6318489731
atom        19.9059000000       19.7590000000       21.0074000000 N         0.0000000000         0.0000000000       -81.4379199998      150.0243800918     -275.0252202129
energy     -1331.0667038672
charge 0
end
begin
comment generated by PY
lattice        40.0000000000         0.0000000000         0.0000000000
lattice         0.0000000000        40.0000000000         0.0000000000
lattice         0.0000000000         0.0000000000        40.0000000000
atom        18.1145000000       19.9552000000       21.0417000000 H         0.0000000000         0.0000000000       127.8487391444       -2.5945747894      -13.6862020692
atom        19.6904000000       19.3820000000       21.8672000000 H         0.0000000000         0.0000000000       -46.3046556570       60.6749506989      -97.3640722668
atom        19.2160000000       19.8791000000       21.0165000000 C         0.0000000000         0.0000000000       115.1053891897       46.8774516972     -172.9052785256
atom        22.0793000000       19.0597000000       19.7198000000 O         0.0000000000         0.0000000000      -192.6340992648      252.0435543387      134.1971576131
atom        21.9480000000       20.7763000000       21.1781000000 O         0.0000000000         0.0000000000      -151.6857098662     -187.3526847703     -235.3477130816
atom        21.4156000000       20.0206000000       20.2887000000 N         0.0000000000         0.0000000000       207.0144446173      -44.8559469606       87.9325583228
atom        19.8814000000       20.2847000000       19.9578000000 N         0.0000000000         0.0000000000       -59.3451081633     -124.7941702145      297.1742238863
energy     -1341.2727600615
charge 0
end
begin
comment generated by PY
lattice        40.0000000000         0.0000000000         0.0000000000
lattice         0.0000000000        40.0000000000         0.0000000000
lattice         0.0000000000         0.0000000000        40.0000000000
atom        18.0122000000       19.6987000000       20.3667000000 H         0.0000000000         0.0000000000       124.6511177000       34.1814605396      -17.9106247853
atom        19.3182000000       20.0731000000       19.0609000000 H         0.0000000000         0.0000000000       -22.7290446277      -29.7365510067      114.9836075596
atom        19.0701000000       19.9169000000       20.1113000000 C         0.0000000000         0.0000000000       159.7171459199       53.5623576953      132.3107925705
atom        21.9226000000       18.8371000000       20.2076000000 O         0.0000000000         0.0000000000      -133.9430359328      305.6131650127       88.4002792500
atom        22.1426000000       21.1036000000       20.4502000000 O         0.0000000000         0.0000000000      -190.4267204227     -286.2201518847       25.3020729269
atom        21.4589000000       20.0178000000       20.5117000000 N         0.0000000000         0.0000000000       183.7767783840        2.2470113544      -89.0510904820
atom        19.9539000000       20.1043000000       21.0343000000 N         0.0000000000         0.0000000000      -121.0466410207      -79.6472407711     -254.0357601002
energy     -1341.0441133672
charge 0
end
begin
comment generated by PY
lattice        40.0000000000         0.0000000000         0.0000000000
lattice         0.0000000000        40.0000000000         0.0000000000
lattice         0.0000000000         0.0000000000        40.0000000000
atom        18.0313000000       20.3979000000       20.6047000000 H         0.0000000000         0.0000000000       117.3037423545       -4.4124203824       16.6759003686
atom        19.4398000000       21.1060000000       21.6248000000 H         0.0000000000         0.0000000000       -35.2147894393      -76.3739831899      -98.6444692345
atom        19.0879000000       20.4320000000       20.8118000000 C         0.0000000000         0.0000000000       152.8140359842     -133.4714445571      -89.3673124599
atom        22.2133000000       18.9789000000       20.8799000000 O         0.0000000000         0.0000000000      -228.9062027329      236.7719029270      -91.2309286902
atom        21.9195000000       20.9618000000       19.8848000000 O         0.0000000000         0.0000000000      -147.7848955424     -254.6509849489      156.8123183654
atom        21.4245000000       19.9257000000       20.4745000000 N         0.0000000000         0.0000000000       241.5175835912        1.5433453446      -89.5018317441
atom        19.8856000000       19.6308000000       20.1481000000 N         0.0000000000         0.0000000000       -99.7298742153      230.5941648067      195.2558464554
energy     -1336.3126490688
charge 0
end
begin
comment generated by PY
lattice        40.0000000000         0.0000000000         0.0000000000
lattice         0.0000000000        40.0000000000         0.0000000000
lattice         0.0000000000         0.0000000000        40.0000000000
atom        17.9208000000       19.8731000000       20.5617000000 H         0.0000000000         0.0000000000       119.8495982817      -16.6976255472      -24.9604908474
atom        19.0700000000       18.7279000000       19.6832000000 H         0.0000000000         0.0000000000        -6.3388647150       95.6209330585       63.8048721252
atom        18.9443000000       19.6172000000       20.2865000000 C         0.0000000000         0.0000000000       191.5625341241      111.1483727524       72.2653810599
atom        22.2105000000       19.5860000000       21.4196000000 O         0.0000000000         0.0000000000      -201.3585271168      166.9749260280     -219.9591195158
atom        21.9558000000       20.2886000000       19.3151000000 O         0.0000000000         0.0000000000      -130.2564829933      -10.1158622954      307.1452680389
atom        21.5067000000       20.1548000000       20.5000000000 N         0.0000000000         0.0000000000       188.8099791916     -171.9418724485      -91.9757385484
atom        19.9227000000       20.3838000000       20.7494000000 N         0.0000000000         0.0000000000      -162.2688367724     -174.9893484873     -106.3201723124
energy     -1327.4222504370
charge 0
end
begin
comment generated by PY
lattice        40.0000000000         0.0000000000         0.0000000000
lattice         0.0000000000        40.0000000000         0.0000000000
lattice         0.0000000000         0.0000000000        40.0000000000
atom        18.1009000000       20.1783000000       21.1693000000 H         0.0000000000         0.0000000000       124.4826152741        7.6635642062      -31.5497138775
atom        19.6127000000       21.1719000000       21.4987000000 H         0.0000000000         0.0000000000       -34.5447893260      -91.5573650510      -51.3828090106
atom        19.1766000000       20.3409000000       20.9979000000 C         0.0000000000         0.0000000000       124.8516718960     -112.0309300975     -141.5452068578
atom        21.8437000000       20.5292000000       21.3612000000 O         0.0000000000         0.0000000000      -131.2631222038     -137.1597277898     -266.3940166859
atom        22.2551000000       19.5146000000       19.4030000000 O         0.0000000000         0.0000000000      -258.4616688196      106.4853946707      209.4039842825
atom        21.3905000000       19.9457000000       20.2573000000 N         0.0000000000         0.0000000000       249.8361480195       18.4743446937       69.3085120808
atom        19.8652000000       19.5822000000       20.1751000000 N         0.0000000000         0.0000000000       -74.9016548401      208.1246324284      212.1592731290
energy     -1333.5867482736
charge 0
end
begin
comment generated by PY
lattice        40.0000000000         0.0000000000         0.0000000000
lattice         0.0000000000        40.0000000000         0.0000000000
lattice         0.0000000000         0.0000000000        40.0000000000
atom        17.9755000000       19.6715000000       20.3872000000 H         0.0000000000         0.0000000000       117.3840769494        8.7352834630      -10.8103918633
atom        19.3256000000       18.9867000000       19.3263000000 H         0.0000000000         0.0000000000       -27.9026072102       66.3695638307       99.0703419043
atom        19.0270000000       19.6153000000       20.1834000000 C         0.0000000000         0.0000000000       200.7011957789       90.1893269066       77.5256162670
atom        22.2481000000       21.1053000000       20.6006000000 O         0.0000000000         0.0000000000      -221.3036517118     -266.3865916294       25.3027694892
atom        21.8654000000       18.9504000000       20.0487000000 O         0.0000000000         0.0000000000      -112.8465765365      268.7835201243      158.0120945212
atom        21.4696000000       20.0540000000       20.6012000000 N         0.0000000000         0.0000000000       184.8704808066       -4.5614799694     -198.3009401338
atom        19.9270000000       20.2749000000       20.8723000000 N         0.0000000000         0.0000000000      -140.9026180764     -163.1301657863     -150.7993532453
energy     -1326.8634754355
charge 0
end
begin
comment generated by PY
lattice        40.0000000000         0.0000000000         0.0000000000
lattice         0.0000000000        40.0000000000         0.0000000000
lattice         0.0000000000         0.0000000000        40.0000000000
atom        17.9896000000       20.0263000000       20.8925000000 H         0.0000000000         0.0000000000       129.8705704964        5.3626919966       -2.0792048973
atom        19.4684000000       20.4074000000       21.9726000000 H         0.0000000000         0.0000000000       -35.5451163540      -35.3866014628     -112.3881756556
atom        19.0911000000       20.1009000000       20.9906000000 C         0.0000000000         0.0000000000       145.7045145189      -42.1638197404     -155.9266705249
atom        22.0977000000       20.9669000000       19.8229000000 O         0.0000000000         0.0000000000      -194.1806763594     -252.4425947222      131.0843038607
atom        22.0267000000       19.0677000000       21.0375000000 O         0.0000000000         0.0000000000      -174.8265129286      231.9530722504     -177.5826023325
atom        21.4343000000       19.9859000000       20.3514000000 N         0.0000000000         0.0000000000       229.9362497832       11.1689023657       28.2296109171
atom        19.8837000000       19.8238000000       19.9631000000 N         0.0000000000         0.0000000000      -100.9584291565       81.5087362522      288.6620686324
energy     -1330.5224430169
charge 0
end
begin
comment generated by PY
lattice        40.0000000000         0.0000000000         0.0000000000
lattice         0.0000000000        40.0000000000         0.0000000000
lattice         0.0000000000         0.0000000000        40.0000000000
atom        18.0561000000       19.9918000000       20.0675000000 H         0.0000000000         0.0000000000       125.9244424183       16.5159231655        1.2023726102
atom        19.4847000000       20.4675000000       18.9709000000 H         0.0000000000         0.0000000000       -25.4719552233      -49.5140431956      111.2142667178
atom        19.1432000000       20.1070000000       19.9500000000 C         0.0000000000         0.0000000000       133.0532093952      -30.3944474295      161.3249608874
atom        21.7217000000       20.1140000000       19.3156000000 O         0.0000000000         0.0000000000       -75.4293797614      -80.0279654070      313.5523956742
atom        22.3198000000       19.9886000000       21.5124000000 O         0.0000000000         0.0000000000      -239.5457350996      -49.3923388484     -246.4936608291
atom        21.4434000000       19.8643000000       20.5391000000 N         0.0000000000         0.0000000000       184.4593478776      153.0244189066      -53.6524912896
atom        19.9187000000       19.8606000000       20.9786000000 N         0.0000000000         0.0000000000      -102.9907526674       39.7883758689     -287.1483437711
energy     -1335.4378930557
charge 0
end
begin
comment generated by PY
lattice        40.0000000000         0.0000000000         0.0000000000
lattice         0.0000000000        40.0000000000         0.0000000000
lattice         0.0000000000         0.0000000000        40.0000000000
atom        18.1310000000       19.5642000000       20.8499000000 H         0.0000000000         0.0000000000       118.2333203559       25.6204327559       -8.1717466119
atom        19.7337000000       19.2589000000       21.7436000000 H         0.0000000000         0.0000000000       -56.9672847623       45.5330037626     -100.2372348930
atom        19.2033000000       19.6895000000       20.8844000000 C         0.0000000000         0.0000000000       153.6031564761      107.3643924452     -123.4611965750
atom        22.0037000000       19.1371000000       19.7169000000 O         0.0000000000         0.0000000000      -171.1826901337      267.3207991819      117.9001621879
atom        22.0181000000       20.7097000000       21.2884000000 O         0.0000000000         0.0000000000      -170.6672158452     -119.1110380592     -261.9978819932
atom        21.4211000000       20.1364000000       20.2769000000 N         0.0000000000         0.0000000000       196.5626918325     -139.9228622084      140.4684324186
atom        19.8888000000       20.3559000000       19.9827000000 N         0.0000000000         0.0000000000       -69.5817548627     -186.8046278780      235.4993724061
energy     -1336.6024924612
charge 0
end
begin
comment generated by PY
lattice        40.0000000000         0.0000000000         0.0000000000
lattice         0.0000000000        40.0000000000         0.0000000000
lattice         0.0000000000         0.0000000000        40.0000000000
atom        18.0970000000       20.5513000000       20.3283000000 H         0.0000000000         0.0000000000       122.9727250540      -22.7518628846        5.4261320523
atom        19.6250000000       21.4265000000       19.9365000000 H         0.0000000000         0.0000000000       -31.9442834231      -99.6771674323       46.5163102658
atom        19.1871000000       20.5255000000       20.3133000000 C         0.0000000000         0.0000000000       125.8280297586     -161.5673411483       28.7526761224
atom        22.3276000000       18.9330000000       20.5587000000 O         0.0000000000         0.0000000000      -266.5632234408      234.0437367937      -10.3735870350
atom        21.7180000000       21.1187000000       20.2667000000 O         0.0000000000         0.0000000000       -82.3359369980     -316.1216481174       60.5945899327
atom        21.4109000000       19.8463000000       20.4961000000 N         0.0000000000         0.0000000000       213.5003976956       76.2257165332      -50.5290103077
atom        19.8959000000       19.4693000000       20.6253000000 N         0.0000000000         0.0000000000       -81.4582625252      289.8490962557      -80.3870810306
energy     -1336.2410216796
charge 0
end
begin
comment generated by PY
lattice        40.0000000000         0.0000000000         0.0000000000
lattice         0.0000000000        40.0000000000         0.0000000000
lattice         0.0000000000         0.0000000000        40.0000000000
atom        18.1018000000       19.5036000000       20.2634000000 H         0.0000000000         0.0000000000       109.9641129853        5.4892181244       45.0029661553
atom        19.5020000000       18.4964000000       20.9901000000 H         0.0000000000         0.0000000000       -30.7991104281      104.3801254393      -54.1837989868
atom        19.1280000000       19.4374000000       20.5820000000 C         0.0000000000         0.0000000000       147.1522240189      175.6129868825      -22.4295644678
atom        21.9047000000       19.3429000000       21.3189000000 O         0.0000000000         0.0000000000      -143.4904538472      203.1522942507     -218.8085207549
atom        22.2056000000       20.5874000000       19.4855000000 O         0.0000000000         0.0000000000      -239.2459904529      -97.3343144822      235.9014068137
atom        21.4153000000       20.1480000000       20.4102000000 N         0.0000000000         0.0000000000       242.2943762502      -98.4036451512       11.1634323046
atom        19.8767000000       20.5239000000       20.4341000000 N         0.0000000000         0.0000000000       -85.8747354656     -292.8978450634        3.3541119965
energy     -1328.2131294070
charge 0
end
begin
comment generated by PY
lattice        40.0000000000         0.0000000000         0.0000000000
lattice         0.0000000000        40.0000000000         0.0000000000
lattice         0.0000000000         0.0000000000        40.0000000000
atom        18.0622000000       20.3566000000       20.3675000000 H         0.0000000000         0.0000000000       123.3272079909      -13.8018447571        7.7831341849
atom        19.4990000000       21.4577000000       20.2924000000 H         0.0000000000         0.0000000000       -27.2538924678     -122.8167051263        8.8921255593
atom        19.1511000000       20.4144000000       20.3944000000 C         0.0000000000         0.0000000000       141.8177234723     -138.9178119421       33.2169941921
atom        22.0394000000       20.2462000000       21.5545000000 O         0.0000000000         0.0000000000      -158.7650552400      -90.6433524959     -292.8769494287
atom        21.9562000000       19.9200000000       19.2732000000 O         0.0000000000         0.0000000000      -139.8283093311       -5.0498086660      315.8754189672
atom        21.4526000000       19.9166000000       20.4460000000 N         0.0000000000         0.0000000000       164.1611903710       61.2565253177       -9.5751409710
atom        19.9537000000       19.3752000000       20.5749000000 N         0.0000000000         0.0000000000      -103.4589647953      309.9733876697      -63.3160325038
energy     -1339.6308370905
charge 0
end
begin
comment generated by PY
lattice        40.0000000000         0.0000000000         0.0000000000
lattice         0.0000000000        40.0000000000         0.0000000000
lattice         0.0000000000         0.0000000000        40.0000000000
atom        17.9024000000       19.8717000000       20.7223000000 H         0.0000000000         0.0000000000       132.9965812600      -23.6495559197      -11.7026944724
atom        19.4114000000       18.7935000000       21.2869000000 H         0.0000000000         0.0000000000       -54.3345810274       84.8692192220      -52.9882595747
atom        18.9972000000       19.6196000000       20.7298000000 C         0.0000000000         0.0000000000       219.4612796880      110.5646392929      -79.7198329248
atom        22.0995000000       20.5969000000       21.3686000000 O         0.0000000000         0.0000000000      -170.2323125942      -44.7667677259     -278.4710094815
atom        22.0375000000       19.2237000000       19.6726000000 O         0.0000000000         0.0000000000      -150.5685418490      267.5604565945      106.1060774795
atom        21.4985000000       20.2254000000       20.2681000000 N         0.0000000000         0.0000000000       177.7410585771     -260.6868564974      185.1137777497
atom        19.8959000000       20.3681000000       20.1248000000 N         0.0000000000         0.0000000000      -155.0638071152     -133.8920119059      131.6631882242
energy     -1304.1309448108
charge 0
end
begin
comment generated by PY
lattice        40.0000000000         0.0000000000         0.0000000000
lattice         0.0000000000        40.0000000000         0.0000000000
lattice         0.0000000000         0.0000000000        40.0000000000
atom        18.1547000000       19.7309000000       19.9672000000 H         0.0000000000         0.0000000000       117.6889000477       23.2750707527       18.5080395587
atom        19.6135000000       19.7791000000       18.9394000000 H         0.0000000000         0.0000000000       -25.1048973645       17.9435831211      123.8923378059
atom        19.2287000000       19.8877000000       19.9644000000 C         0.0000000000         0.0000000000        94.8020385700      -13.3180244495      164.8331273870
atom        22.1872000000       21.0241000000       20.7905000000 O         0.0000000000         0.0000000000      -236.6846282266     -238.2485961325      -53.4990922848
atom        21.8346000000       19.0035000000       19.9395000000 O         0.0000000000         0.0000000000      -133.9074489671      261.0560678486      150.2858263057
atom        21.3875000000       20.0663000000       20.5400000000 N         0.0000000000         0.0000000000       243.9709453747      -35.4991903733      -54.6091329759
atom        19.9075000000       20.0004000000       21.0869000000 N         0.0000000000         0.0000000000       -60.7655094342      -15.2090377065     -349.4101288570
energy     -1345.0344882915
charge 0
end
begin
comment generated by PY
lattice        40.0000000000         0.0000000000         0.0000000000
lattice         0.0000000000        40.0000000000         0.0000000000
lattice         0.0000000000         0.0000000000        40.0000000000
atom        17.9511000000       20.2894000000       20.3432000000 H         0.0000000000         0.0000000000       101.4635181165       -2.5004455415       32.4058583002
atom        19.2484000000       21.5414000000       20.7521000000 H         0.0000000000         0.0000000000       -31.2370884184     -113.9322089321      -37.1154793894
atom        18.9605000000       20.4871000000       20.5307000000 C         0.0000000000         0.0000000000       242.9877096010      -88.5058577610       -7.9499297782
atom        21.9047000000       21.0862000000       20.4317000000 O         0.0000000000         0.0000000000      -119.5019356301     -293.0479938826      -77.1988777302
atom        22.2564000000       18.8616000000       20.5479000000 O         0.0000000000         0.0000000000      -214.2146502706      244.2533132036     -106.6313734230
atom        21.4753000000       19.8894000000       20.2312000000 N         0.0000000000         0.0000000000       203.6154909996       70.0783930628      235.7953366136
atom        19.9312000000       19.5883000000       20.4681000000 N         0.0000000000         0.0000000000      -183.1128443979      183.6542998508      -39.3055684718
energy     -1303.0703480431
charge 0
end
begin
comment generated by PY
lattice        40.0000000000         0.0000000000         0.0000000000
lattice         0.0000000000        40.0000000000         0.0000000000
lattice         0.0000000000         0.0000000000        40.0000000000
atom        17.8877000000       20.1454000000       20.2491000000 H         0.0000000000         0.0000000000       132.7598046595       24.6143523084       26.4326581321
atom        19.1549000000       21.3924000000       19.8781000000 H         0.0000000000         0.0000000000        -3.5567380223      -95.0649989951       33.0870031355
atom        18.9795000000       20.4466000000       20.2942000000 C         0.0000000000         0.0000000000       163.6270456411     -134.5589937754       50.6609611612
atom        21.9532000000       21.0814000000       20.5549000000 O         0.0000000000         0.0000000000      -146.5531322456     -283.4981576768      -73.9248176381
atom        22.2228000000       18.8692000000       20.3483000000 O         0.0000000000         0.0000000000      -227.3162283441      257.9567318846      -25.2953803297
atom        21.4471000000       19.9065000000       20.3231000000 N         0.0000000000         0.0000000000       243.9728998979       35.4535723772      142.7324136658
atom        19.9373000000       19.6238000000       20.7356000000 N         0.0000000000         0.0000000000      -162.9336515864      195.0968708165     -153.6924150662
energy     -1315.2084982523
charge 0
end
begin
comment generated by PY
lattice        40.0000000000         0.0000000000         0.0000000000
lattice         0.0000000000        40.0000000000         0.0000000000
lattice         0.0000000000         0.0000000000        40.0000000000
atom        18.0759000000       20.0290000000       19.9625000000 H         0.0000000000         0.0000000000       119.9937977455      -20.9056043356       22.7233269428
atom        19.3930000000       18.9451000000       19.3156000000 H         0.0000000000         0.0000000000       -14.0382801737       95.1218529747       78.4931112452
atom        19.1271000000       19.7478000000       20.0213000000 C         0.0000000000         0.0000000000       142.6985671201       47.6108152396      148.3879225982
atom        22.2355000000       21.0183000000       20.7914000000 O         0.0000000000         0.0000000000      -206.0786426130     -269.1679792494        9.5204304342
atom        21.7991000000       19.0325000000       19.8600000000 O         0.0000000000         0.0000000000       -93.5491568048      210.8779091129      233.2758703858
atom        21.4676000000       19.9433000000       20.6976000000 N         0.0000000000         0.0000000000       168.8953193647       64.4690225227     -254.8928284473
atom        19.9213000000       20.2551000000       20.9436000000 N         0.0000000000         0.0000000000      -117.9207815782     -128.0056162650     -237.5079031589
energy     -1319.4548078243
charge 0
end
begin
comment generated by PY
lattice        40.0000000000         0.0000000000         0.0000000000
lattice         0.0000000000        40.0000000000         0.0000000000
lattice         0.0000000000         0.0000000000        40.0000000000