begin
comment generated by PY
lattice        40.0000000000         0.0000000000         0.0000000000
lattice         0.0000000000        40.0000000000         0.0000000000
lattice         0.0000000000         0.0000000000        40.0000000000
atom        19.0876000000       20.2407000000       19.1067000000 H         0.0000000000         0.0000000000        57.1986360134      -22.6203238131       83.9857149134
atom        19.0876000000       19.7592000000       20.8933000000 H         0.0000000000         0.0000000000        57.1976711835       22.6450657709      -83.9890523066
atom        19.6593000000       20.0000000000       20.0000000000 C         0.0000000000         0.0000000000       133.7365547883       -0.0507110187        0.0057321291
atom        20.9410000000       19.9999000000       20.0000000000 O         0.0000000000         0.0000000000      -248.1330619853        0.0259936214       -0.0023092951
energy      -621.1425611363
charge 0
end
begin
comment generated by PY
lattice        40.0000000000         0.0000000000         0.0000000000
lattice         0.0000000000        40.0000000000         0.0000000000
lattice         0.0000000000         0.0000000000        40.0000000000
atom        19.1719000000       20.3355000000       19.0630000000 H         0.0000000000         0.0000000000        41.5748264042      -42.7436480223       99.8420471282
atom        19.0025000000       19.8113000000       20.8507000000 H         0.0000000000         0.0000000000        71.1755136131        7.8114527125      -69.9087675592
atom        19.6601000000       19.9816000000       20.0188000000 C         0.0000000000         0.0000000000       133.0642233204       49.5826734521      -52.5820252721
atom        20.9405000000       20.0045000000       19.9912000000 O         0.0000000000         0.0000000000      -245.8147633376      -14.6503981422       22.6486626426
energy      -615.9221223312
charge 0
end
begin
comment generated by PY
lattice        40.0000000000         0.0000000000         0.0000000000
lattice         0.0000000000        40.0000000000         0.0000000000
lattice         0.0000000000         0.0000000000        40.0000000000
atom        19.0224000000       20.3352000000       19.2210000000 H         0.0000000000         0.0000000000        68.3083331525      -48.6686354535       42.9078547309
atom        19.1123000000       20.0142000000       20.9245000000 H         0.0000000000         0.0000000000        55.4932265783      -26.7190185265      -88.0864426455
atom        19.6623000000       19.9602000000       19.9725000000 C         0.0000000000         0.0000000000       119.7504135929       97.9393990697       67.8376632908
atom        20.9412000000       20.0079000000       20.0116000000 O         0.0000000000         0.0000000000      -243.5524733237      -22.5517320291      -22.6589053762
energy      -616.3562385338
charge 0
end
begin
comment generated by PY
lattice        40.0000000000         0.0000000000         0.0000000000
lattice         0.0000000000        40.0000000000         0.0000000000
lattice         0.0000000000         0.0000000000        40.0000000000
atom        19.0504000000       20.2988000000       19.1620000000 H         0.0000000000         0.0000000000        65.3703314067      -30.4541694622       68.6073897795
atom        19.0461000000       19.7770000000       20.8688000000 H         0.0000000000         0.0000000000        67.0667644101       14.1047417471      -77.5037024185
atom        19.6547000000       19.9912000000       19.9959000000 C         0.0000000000         0.0000000000       128.0411398363       21.6077915400       11.2539460431
atom        20.9494000000       20.0017000000       20.0012000000 O         0.0000000000         0.0000000000      -260.4785587136       -5.2582938248       -2.3575593435
energy      -618.4007101142
charge 0
end
begin
comment generated by PY
lattice        40.0000000000         0.0000000000         0.0000000000
lattice         0.0000000000        40.0000000000         0.0000000000
lattice         0.0000000000         0.0000000000        40.0000000000
atom        19.2029000000       20.1691000000       18.9804000000 H         0.0000000000         0.0000000000        34.5161370393       -2.3550295191      117.7410580755
atom        18.9898000000       19.6039000000       20.7748000000 H         0.0000000000         0.0000000000        74.9090727972       49.3785062838      -52.8002902541
atom        19.6703000000       20.0248000000       20.0431000000 C         0.0000000000         0.0000000000       118.9714186778      -57.0659117092     -105.3295401337
atom        20.9316000000       19.9954000000       19.9829000000 O         0.0000000000         0.0000000000      -228.3965515748       10.0423418839       40.3887623123
energy      -610.6622933259
charge 0
end
begin
comment generated by PY
lattice        40.0000000000         0.0000000000         0.0000000000
lattice         0.0000000000        40.0000000000         0.0000000000
lattice         0.0000000000         0.0000000000        40.0000000000
atom        19.0593000000       20.2411000000       19.1548000000 H         0.0000000000         0.0000000000        51.5959570193       -0.6776206725       69.7001478688
atom        19.3060000000       19.4663000000       20.8294000000 H         0.0000000000         0.0000000000         5.3472169403       70.7766774027      -78.4961321757
atom        19.6483000000       20.0462000000       19.9911000000 C         0.0000000000         0.0000000000       176.3808297746     -105.3325781503       30.7754573922
atom        20.9373000000       19.9834000000       20.0077000000 O         0.0000000000         0.0000000000      -233.3242267948       35.2335214201      -21.9785970852
energy      -617.9409209459
charge 0
end
begin
comment generated by PY
lattice        40.0000000000         0.0000000000         0.0000000000
lattice         0.0000000000        40.0000000000         0.0000000000
lattice         0.0000000000         0.0000000000        40.0000000000
atom        19.2025000000       20.4163000000       19.1124000000 H         0.0000000000         0.0000000000        32.6861299487      -38.7752759127       96.4823353221
atom        18.9736000000       19.5428000000       20.8212000000 H         0.0000000000         0.0000000000        79.7606219587       49.8059805803      -77.3336681417
atom        19.6593000000       20.0058000000       20.0246000000 C         0.0000000000         0.0000000000       134.0902055007       -6.9950996782      -45.9220771486
atom        20.9409000000       19.9981000000       19.9857000000 O         0.0000000000         0.0000000000      -246.5370574080       -4.0356649894       26.7734099682
energy      -610.9382790496
charge 0
end
begin
comment generated by PY
lattice        40.0000000000         0.0000000000         0.0000000000
lattice         0.0000000000        40.0000000000         0.0000000000
lattice         0.0000000000         0.0000000000        40.0000000000
atom        18.9841000000       20.5230000000       19.2556000000 H         0.0000000000         0.0000000000        81.8338232630      -63.6190624080       55.8095452921
atom        19.1119000000       19.7632000000       20.8448000000 H         0.0000000000         0.0000000000        51.2115106846       -1.0323487388      -69.9597316710
atom        19.6647000000       19.9752000000       19.9815000000 C         0.0000000000         0.0000000000       113.6287285416       77.3097993267       31.6064383932
atom        20.9419000000       20.0006000000       20.0076000000 O         0.0000000000         0.0000000000      -246.6744624891      -12.6583381799      -17.4558389537
energy      -616.3415435197
charge 0
end
begin
comment generated by PY
lattice        40.0000000000         0.0000000000         0.0000000000
lattice         0.0000000000        40.0000000000         0.0000000000
lattice         0.0000000000         0.0000000000        40.0000000000
atom        19.0929000000       20.6006000000       19.3303000000 H         0.0000000000         0.0000000000        52.8827012563      -72.5346463621       37.6470782217
atom        19.1429000000       19.7693000000       20.8921000000 H         0.0000000000         0.0000000000        43.6859658848       -5.9013393206      -89.0383619991
atom        19.6514000000       19.9599000000       19.9702000000 C         0.0000000000         0.0000000000       148.9022140216      101.2405105502       72.4241843768
atom        20.9431000000       20.0068000000       20.0084000000 O         0.0000000000         0.0000000000      -245.4707042232      -22.8045648676      -21.0326105995
energy      -615.4988034963
charge 0
end
begin
comment generated by PY
lattice        40.0000000000         0.0000000000         0.0000000000
lattice         0.0000000000        40.0000000000         0.0000000000
lattice         0.0000000000         0.0000000000        40.0000000000
atom        19.2146000000       20.6224000000       19.2560000000 H         0.0000000000         0.0000000000        30.3050036449      -77.2401158518       64.9531116528
atom        18.9830000000       19.6585000000       20.8714000000 H         0.0000000000         0.0000000000        78.1853295487       15.7034170319      -91.3074061427
atom        19.6629000000       19.9619000000       19.9977000000 C         0.0000000000         0.0000000000       129.0080156979       92.3636281700       15.5224004277
atom        20.9369000000       20.0109000000       19.9937000000 O         0.0000000000         0.0000000000      -237.4987258309      -30.8268493501       10.8318700622
energy      -611.1343386828
charge 0
end
begin
comment generated by PY
lattice        40.0000000000         0.0000000000         0.0000000000
lattice         0.0000000000        40.0000000000         0.0000000000
lattice         0.0000000000         0.0000000000        40.0000000000
atom        19.0447000000       20.6740000000       19.3799000000 H         0.0000000000         0.0000000000        59.7616626040      -77.7588596509       40.4587263567
atom        19.3449000000       19.5970000000       20.8811000000 H         0.0000000000         0.0000000000        -6.0865260864       19.6973003680      -93.2414130685
atom        19.6474000000       19.9791000000       19.9546000000 C         0.0000000000         0.0000000000       175.1782558989       59.2422351147       97.9567739207
atom        20.9365000000       19.9986000000       20.0178000000 O         0.0000000000         0.0000000000      -228.8531924165       -1.1807788924      -45.1737072090
energy      -613.7856757173
charge 0
end
begin
comment generated by PY
lattice        40.0000000000         0.0000000000         0.0000000000
lattice         0.0000000000        40.0000000000         0.0000000000
lattice         0.0000000000         0.0000000000        40.0000000000
atom        19.2401000000       20.7978000000       19.3482000000 H         0.0000000000         0.0000000000        25.9719382162     -102.5520818949       58.7608332576
atom        18.9980000000       19.5908000000       20.7590000000 H         0.0000000000         0.0000000000        69.6047751268       11.4089285070      -70.0607603912
atom        19.6598000000       19.9508000000       19.9998000000 C         0.0000000000         0.0000000000       139.8834276292      132.6908824222       -0.9809151145
atom        20.9367000000       20.0125000000       19.9935000000 O         0.0000000000         0.0000000000      -235.4599179116      -41.5477490343       12.2808312482
energy      -609.4450963427
charge 0
end
begin
comment generated by PY
lattice        40.0000000000         0.0000000000         0.0000000000
lattice         0.0000000000        40.0000000000         0.0000000000
lattice         0.0000000000         0.0000000000        40.0000000000
atom        18.9953000000       20.5838000000       19.3716000000 H         0.0000000000         0.0000000000        75.5189829300      -58.6346487900       34.9176702962
atom        19.1281000000       19.6022000000       20.8519000000 H         0.0000000000         0.0000000000        52.5665862652       23.2019036392      -90.5818310511
atom        19.6636000000       19.9866000000       19.9690000000 C         0.0000000000         0.0000000000       116.7766059076       39.1453682335       82.0577551676
atom        20.9410000000       19.9983000000       20.0093000000 O         0.0000000000         0.0000000000      -244.8617751029       -3.7125930827      -26.3935844127
energy      -617.3522623173
charge 0
end
begin
comment generated by PY
lattice        40.0000000000         0.0000000000         0.0000000000
lattice         0.0000000000        40.0000000000         0.0000000000
lattice         0.0000000000         0.0000000000        40.0000000000
atom        19.1410000000       20.6062000000       19.3274000000 H         0.0000000000         0.0000000000        43.2103516045      -62.4724638188       46.1203676424
atom        19.0251000000       19.5934000000       20.8194000000 H         0.0000000000         0.0000000000        70.8054149011       23.7227216585      -83.4704670400
atom        19.6558000000       19.9751000000       19.9905000000 C         0.0000000000         0.0000000000       136.8715867294       57.9126711023       37.9401475520
atom        20.9442000000       20.0060000000       19.9980000000 O         0.0000000000         0.0000000000      -250.8871301745      -19.1629489420       -0.5900450939
energy      -618.1479879959
charge 0
end
begin
comment generated by PY
lattice        40.0000000000         0.0000000000         0.0000000000
lattice         0.0000000000        40.0000000000         0.0000000000
lattice         0.0000000000         0.0000000000        40.0000000000
atom        19.0435000000       20.6379000000       19.3154000000 H         0.0000000000         0.0000000000        70.3038365831      -66.6931296920       62.1754044996
atom        19.0309000000       19.4752000000       20.7217000000 H         0.0000000000         0.0000000000        70.9004510271       39.3305948993      -65.5767903510
atom        19.6638000000       19.9882000000       19.9995000000 C         0.0000000000         0.0000000000       111.8274362480       35.6075700700        2.9946022945
atom        20.9439000000       20.0016000000       19.9981000000 O         0.0000000000         0.0000000000      -253.0315238581       -8.2451152773        0.4067865569
energy      -615.6639707501
charge 0
end
begin
comment generated by PY
lattice        40.0000000000         0.0000000000         0.0000000000
lattice         0.0000000000        40.0000000000         0.0000000000
lattice         0.0000000000         0.0000000000        40.0000000000
atom        19.0038000000       20.4432000000       19.2138000000 H         0.0000000000         0.0000000000        71.8589056184      -24.4171170900       80.2589890753
atom        19.2623000000       19.3213000000       20.6748000000 H         0.0000000000         0.0000000000        16.3429280473       78.1164387876      -53.7254158446
atom        19.6571000000       20.0432000000       20.0051000000 C         0.0000000000         0.0000000000       146.6595542241      -89.7447900846      -15.4274914287
atom        20.9370000000       19.9822000000       20.0031000000 O         0.0000000000         0.0000000000      -234.8618878898       36.0454053265      -11.1061108625
energy      -617.2834352781
charge 0
end
begin
comment generated by PY
lattice        40.0000000000         0.0000000000         0.0000000000
lattice         0.0000000000        40.0000000000         0.0000000000
lattice         0.0000000000         0.0000000000        40.0000000000
atom        19.2308000000       20.4907000000       19.1825000000 H         0.0000000000         0.0000000000        22.6719073566      -35.5285845117       85.2206132210
atom        19.0371000000       19.3501000000       20.6911000000 H         0.0000000000         0.0000000000        66.6735251987       75.4592101682      -60.1882977212
atom        19.6609000000       20.0167000000       20.0277000000 C         0.0000000000         0.0000000000       143.8487302531      -41.9844300219      -51.4359715129
atom        20.9340000000       19.9973000000       19.9871000000 O         0.0000000000         0.0000000000      -233.1945397479        2.0538043655       26.4041490736
energy      -618.3482361530
charge 0
end
begin
comment generated by PY
lattice        40.0000000000         0.0000000000         0.0000000000
lattice         0.0000000000        40.0000000000         0.0000000000
lattice         0.0000000000         0.0000000000        40.0000000000
atom        19.1405000000       20.5613000000       19.2167000000 H         0.0000000000         0.0000000000        46.2162835631      -56.3962400712       81.4672316537
atom        19.0395000000       19.4523000000       20.7434000000 H         0.0000000000         0.0000000000        66.0438450789       53.1775518397      -69.4913784601
atom        19.6548000000       19.9982000000       20.0112000000 C         0.0000000000         0.0000000000       140.6282757450        8.5431018456      -23.6714613563
atom        20.9440000000       20.0004000000       19.9941000000 O         0.0000000000         0.0000000000      -252.8880043870       -5.3243776747       11.6955981627
energy      -615.9365602478
charge 0
end
begin
comment generated by PY
lattice        40.0000000000         0.0000000000         0.0000000000
lattice         0.0000000000        40.0000000000         0.0000000000
lattice         0.0000000000         0.0000000000        40.0000000000
atom        18.9960000000       20.5718000000       19.2984000000 H         0.0000000000         0.0000000000        76.7690789415      -55.9510128450       60.3560582940
atom        19.1844000000       19.4959000000       20.7718000000 H         0.0000000000         0.0000000000        34.4739336849       40.6261076660      -70.9943168540
atom        19.6626000000       20.0041000000       19.9846000000 C         0.0000000000         0.0000000000       129.6866633836        6.7455274612       29.9882253519
atom        20.9382000000       19.9926000000       20.0072000000 O         0.0000000000         0.0000000000      -240.9295760101        8.5793556572      -19.3497637313
energy      -621.9875178435
charge 0
end
begin
comment generated by PY
lattice        40.0000000000         0.0000000000         0.0000000000
lattice         0.0000000000        40.0000000000         0.0000000000
lattice         0.0000000000         0.0000000000        40.0000000000
atom        19.0928000000       20.6091000000       19.2984000000 H         0.0000000000         0.0000000000        54.9924258798      -65.2261157998       59.4598525217
atom        19.1073000000       19.5246000000       20.8175000000 H         0.0000000000         0.0000000000        52.9024498779       38.5049259543      -86.2592047644
atom        19.6568000000       19.9881000000       19.9873000000 C         0.0000000000         0.0000000000       140.2923854373       33.7682916053       35.7865552288
atom        20.9413000000       20.0004000000       20.0023000000 O         0.0000000000         0.0000000000      -248.1874611950       -7.0470517599       -8.9872429861
energy      -618.5623958734
charge 0
end
begin
comment generated by PY
lattice        40.0000000000         0.0000000000         0.0000000000
lattice         0.0000000000        40.0000000000         0.0000000000
lattice         0.0000000000         0.0000000000        40.0000000000
atom        19.2363000000       20.7186000000       19.3771000000 H         0.0000000000         0.0000000000        23.3841955307      -82.3534303428       44.1454704375
atom        19.0039000000       19.5754000000       20.8148000000 H         0.0000000000         0.0000000000        73.5018797900       20.5726515945      -87.1234887081
atom        19.6602000000       19.9592000000       19.9898000000 C         0.0000000000         0.0000000000       137.4470787517       96.4441546253       37.9058531868
atom        20.9363000000       20.0121000000       19.9956000000 O         0.0000000000         0.0000000000      -234.3332540724      -34.6633189376        5.0721550838
energy      -615.0191407663
charge 0
end
begin
comment generated by PY
lattice        40.0000000000         0.0000000000         0.0000000000
lattice         0.0000000000        40.0000000000         0.0000000000
lattice         0.0000000000         0.0000000000        40.0000000000
atom        19.0717000000       20.7119000000       19.4126000000 H         0.0000000000         0.0000000000        60.0283460047      -83.3845591320       34.2474618272
atom        19.1514000000       19.6148000000       20.8437000000 H         0.0000000000         0.0000000000        42.1827540031       12.3064375243      -89.4304534199
atom        19.6554000000       19.9683000000       19.9659000000 C         0.0000000000         0.0000000000       140.9386750711       87.5910521023       79.9741462548
atom        20.9409000000       20.0032000000       20.0096000000 O         0.0000000000         0.0000000000      -243.1497750789      -16.5129304947      -24.7909016015
energy      -614.4479018581
charge 0
end
begin
comment generated by PY
lattice        40.0000000000         0.0000000000         0.0000000000
lattice         0.0000000000        40.0000000000         0.0000000000
lattice         0.0000000000         0.0000000000        40.0000000000
atom        18.9334000000       20.5953000000       19.3401000000 H         0.0000000000         0.0000000000        91.6199354210      -64.5701918717       43.1931571028
atom        19.1000000000       19.6431000000       20.8128000000 H         0.0000000000         0.0000000000        57.1327532820       12.9529625376      -74.7140815571
atom        19.6622000000       19.9846000000       19.9740000000 C         0.0000000000         0.0000000000       106.7939946801       56.5902719410       54.7130721125
atom        20.9477000000       19.9965000000       20.0099000000 O         0.0000000000         0.0000000000      -255.5469603225       -4.9731226069      -23.1924776582
energy      -611.0166994452
charge 0
end
begin
comment generated by PY
lattice        40.0000000000         0.0000000000         0.0000000000
lattice         0.0000000000        40.0000000000         0.0000000000
lattice         0.0000000000         0.0000000000        40.0000000000
atom        19.2437000000       20.4891000000       19.1643000000 H         0.0000000000         0.0000000000        21.0736577940      -38.6570255900       90.6334867789
atom        19.0088000000       19.3837000000       20.7103000000 H         0.0000000000         0.0000000000        72.2124580166       70.5435837623      -61.7706009879
atom        19.6607000000       20.0142000000       20.0318000000 C         0.0000000000         0.0000000000       141.3427015405      -30.5964119077      -59.7982086912
atom        20.9351000000       19.9971000000       19.9840000000 O         0.0000000000         0.0000000000      -234.6288173511       -1.2901762646       30.9353529001
energy      -615.8935098249
charge 0
end
begin
comment generated by PY
lattice        40.0000000000         0.0000000000         0.0000000000
lattice         0.0000000000        40.0000000000         0.0000000000
lattice         0.0000000000         0.0000000000        40.0000000000
atom        19.0788000000       20.5696000000       19.2366000000 H         0.0000000000         0.0000000000        52.6833966398      -58.8676582545       76.2471839321
atom        19.2653000000       19.4589000000       20.8312000000 H         0.0000000000         0.0000000000        12.6623184532       55.8918023200      -88.1011270067
atom        19.6408000000       20.0093000000       19.9894000000 C         0.0000000000         0.0000000000       183.9770416584       -8.5036774382       29.3300773175
atom        20.9443000000       19.9911000000       20.0037000000 O         0.0000000000         0.0000000000      -249.3227567514       11.4795433727      -17.4760512428
energy      -613.8817149761
charge 0
end
begin
comment generated by PY
lattice        40.0000000000         0.0000000000         0.0000000000
lattice         0.0000000000        40.0000000000         0.0000000000
lattice         0.0000000000         0.0000000000        40.0000000000
atom        19.0809000000       20.6303000000       19.2730000000 H         0.0000000000         0.0000000000        60.1236397488      -66.6784506580       72.1365130961
atom        19.1060000000       19.4333000000       20.7825000000 H         0.0000000000         0.0000000000        54.8833695224       55.7822222183      -82.2534772762
atom        19.6701000000       20.0001000000       19.9976000000 C         0.0000000000         0.0000000000       118.7742302780       10.9281644956       13.7423862697
atom        20.9321000000       19.9958000000       19.9984000000 O         0.0000000000         0.0000000000      -233.7814395492       -0.0319280559       -3.6254558897
energy      -617.8789193564
charge 0
end
begin
comment generated by PY
lattice        40.0000000000         0.0000000000         0.0000000000
lattice         0.0000000000        40.0000000000         0.0000000000
lattice         0.0000000000         0.0000000000        40.0000000000
atom        19.1153000000       20.5097000000       19.2817000000 H         0.0000000000         0.0000000000        52.1407417410      -31.9990490513       59.5524515800
atom        18.9436000000       19.4369000000       20.6353000000 H         0.0000000000         0.0000000000        88.2211101900       50.0057686361      -43.3137977530
atom        19.6588000000       20.0069000000       20.0209000000 C         0.0000000000         0.0000000000       116.8972312861      -15.3646559441      -35.6853348660
atom        20.9487000000       19.9980000000       19.9895000000 O         0.0000000000         0.0000000000      -257.2595362777       -2.6420836408       19.4465679784
energy      -618.4569398189
charge 0
end
begin
comment generated by PY
lattice        40.0000000000         0.0000000000         0.0000000000
lattice         0.0000000000        40.0000000000         0.0000000000
lattice         0.0000000000         0.0000000000        40.0000000000
atom        18.9330000000       20.6506000000       19.4132000000 H         0.0000000000         0.0000000000        88.4460894152      -67.4968963093       34.8573276906
atom        19.2385000000       19.5553000000       20.7766000000 H         0.0000000000         0.0000000000        18.5314233052       17.7560818990      -65.8531257333
atom        19.6578000000       19.9938000000       19.9612000000 C         0.0000000000         0.0000000000       135.1347016820       42.7334307907       69.3158760013
atom        20.9424000000       19.9916000000       20.0172000000 O         0.0000000000         0.0000000000      -242.1123144024        7.0074206195      -38.3204948980
energy      -616.8423710955
charge 0
end
begin
comment generated by PY
lattice        40.0000000000         0.0000000000         0.0000000000
lattice         0.0000000000        40.0000000000         0.0000000000
lattice         0.0000000000         0.0000000000        40.0000000000
atom        19.2866000000       20.5885000000       19.1954000000 H         0.0000000000         0.0000000000         9.6833170141      -53.6609881982       89.9412579453
atom        19.0350000000       19.3028000000       20.6691000000 H         0.0000000000         0.0000000000        64.1338618530       80.4235578204      -63.1540961153
atom        19.6516000000       20.0082000000       20.0252000000 C         0.0000000000         0.0000000000       164.9644343602      -20.7192859697      -54.4877737087
atom        20.9376000000       20.0005000000       19.9896000000 O         0.0000000000         0.0000000000      -238.7821362879       -6.0432736525       27.7005718787
energy      -611.7418328706
charge 0
end
begin
comment generated by PY
lattice        40.0000000000         0.0000000000         0.0000000000
lattice         0.0000000000        40.0000000000         0.0000000000
lattice         0.0000000000         0.0000000000        40.0000000000
atom        19.1970000000       20.6628000000       19.2451000000 H         0.0000000000         0.0000000000        32.9642983010      -73.4654655710       80.6321432275
atom        19.0688000000       19.4016000000       20.7381000000 H         0.0000000000         0.0000000000        58.1570600187       59.5611399204      -76.7904773207
atom        19.6566000000       19.9924000000       20.0028000000 C         0.0000000000         0.0000000000       151.1883525669       24.2218465559      -12.1374445803
atom        20.9374000000       20.0015000000       19.9990000000 O         0.0000000000         0.0000000000      -242.3093108865      -10.3176259658        8.2957710735
energy      -615.2383752387
charge 0
end
begin
comment generated by PY
lattice        40.0000000000         0.0000000000         0.0000000000
lattice         0.0000000000        40.0000000000         0.0000000000
lattice         0.0000000000         0.0000000000        40.0000000000
atom        19.0036000000       20.6521000000       19.3811000000 H         0.0000000000         0.0000000000        68.6990680612      -63.5852811933       47.8748456394
atom        19.3388000000       19.4300000000       20.7421000000 H         0.0000000000         0.0000000000        -8.9093227720       40.7554617923      -66.1485102353
atom        19.6470000000       20.0086000000       19.9665000000 C         0.0000000000         0.0000000000       175.6666655287        2.8785267564       55.9173629755
atom        20.9398000000       19.9882000000       20.0174000000 O         0.0000000000         0.0000000000      -235.4566108179       19.9512456446      -37.6433114401
energy      -619.6195604069