begin
comment generated by PY
lattice        40.0000000000         0.0000000000         0.0000000000
lattice         0.0000000000        40.0000000000         0.0000000000
lattice         0.0000000000         0.0000000000        40.0000000000
atom        20.0000000000       20.7975000000       19.7166000000 H         0.0000000000         0.0000000000         0.0000000000     -121.4799108862       60.2553178788
atom        20.0000000000       19.2025000000       19.7166000000 H         0.0000000000         0.0000000000         0.0000000000      121.4799108862       60.2553178788
atom        20.0000000000       20.0000000000       20.2686000000 O         0.0000000000         0.0000000000        -0.0000000000       -0.0000000000     -120.5106126970
energy      -400.7881915107
charge 0
end
begin
comment generated by PY
lattice        40.0000000000         0.0000000000         0.0000000000
lattice         0.0000000000        40.0000000000         0.0000000000
lattice         0.0000000000         0.0000000000        40.0000000000
atom        20.0000000000       20.8204000000       19.6711000000 H         0.0000000000         0.0000000000        -0.0000000000     -140.6164103368       82.8702524212
atom        20.0000000000       19.2110000000       19.6997000000 H         0.0000000000         0.0000000000        -0.0000000000      117.9098417166       64.9607340128
atom        20.0000000000       19.9980000000       20.2725000000 O         0.0000000000         0.0000000000         0.0000000000       22.7069686202     -147.8311864341
energy      -393.8990534595
charge 0
end
begin
comment generated by PY
lattice        40.0000000000         0.0000000000         0.0000000000
lattice         0.0000000000        40.0000000000         0.0000000000
lattice         0.0000000000         0.0000000000        40.0000000000
atom        20.0000000000       20.7427000000       19.7654000000 H         0.0000000000         0.0000000000         0.0000230605      -53.6989576884       10.0458013653
atom        20.0000000000       19.2075000000       19.7347000000 H         0.0000000000         0.0000000000         0.0000230605      117.5549313665       53.9290684584
atom        20.0000000000       20.0031000000       20.2644000000 O         0.0000000000         0.0000000000        -0.0000230605      -63.8560736780      -63.9753698237
energy      -409.5861760805
charge 0
end
begin
comment generated by PY
lattice        40.0000000000         0.0000000000         0.0000000000
lattice         0.0000000000        40.0000000000         0.0000000000
lattice         0.0000000000         0.0000000000        40.0000000000
atom        20.0000000000       20.8302000000       19.7532000000 H         0.0000000000         0.0000000000        -0.0000000000     -131.2383693947       49.1187971399
atom        20.0000000000       19.1490000000       19.7429000000 H         0.0000000000         0.0000000000        -0.0000000000      146.0189116315       58.4076666856
atom        20.0000000000       20.0013000000       20.2647000000 O         0.0000000000         0.0000000000         0.0000000000      -14.7800322368     -107.5260638255
energy      -393.4802498133
charge 0
end
begin
comment generated by PY
lattice        40.0000000000         0.0000000000         0.0000000000
lattice         0.0000000000        40.0000000000         0.0000000000
lattice         0.0000000000         0.0000000000        40.0000000000
atom        20.0000000000       20.8623000000       19.6075000000 H         0.0000000000         0.0000000000         0.0000000000     -154.5978235783      103.1727466121
atom        20.0000000000       19.2257000000       19.6891000000 H         0.0000000000         0.0000000000        -0.0000000000      108.3262296343       64.6521569107
atom        20.0000000000       19.9945000000       20.2771000000 O         0.0000000000         0.0000000000        -0.0000000000       46.2719708835     -167.8246035229
energy      -381.7958344857
charge 0
end
begin
comment generated by PY
lattice        40.0000000000         0.0000000000         0.0000000000
lattice         0.0000000000        40.0000000000         0.0000000000
lattice         0.0000000000         0.0000000000        40.0000000000
atom        20.0000000000       20.7370000000       19.7360000000 H         0.0000000000         0.0000000000        -0.0000000000      -67.0418315973       28.2275017885
atom        20.0000000000       19.2347000000       19.7181000000 H         0.0000000000         0.0000000000        -0.0000000000      102.1639903687       53.7709905220
atom        20.0000000000       20.0018000000       20.2673000000 O         0.0000000000         0.0000000000         0.0000230605      -35.1223587714      -81.9983923105
energy      -411.3211081858
charge 0
end
begin
comment generated by PY
lattice        40.0000000000         0.0000000000         0.0000000000
lattice         0.0000000000        40.0000000000         0.0000000000
lattice         0.0000000000         0.0000000000        40.0000000000
atom        20.0000000000       20.7504000000       19.8073000000 H         0.0000000000         0.0000000000         0.0000000000      -26.4573521402      -19.3104164843
atom        20.0000000000       19.1342000000       19.7505000000 H         0.0000000000         0.0000000000         0.0000000000      157.7767699367       62.0453135851
atom        20.0000000000       20.0072000000       20.2608000000 O         0.0000000000         0.0000000000        -0.0000000000     -131.3186177965      -42.7347971008
energy      -399.6120602010
charge 0
end
begin
comment generated by PY
lattice        40.0000000000         0.0000000000         0.0000000000
lattice         0.0000000000        40.0000000000         0.0000000000
lattice         0.0000000000         0.0000000000        40.0000000000
atom        20.0000000000       20.8638000000       19.6568000000 H         0.0000000000         0.0000000000         0.0000000000     -155.1337034256       88.0682587306
atom        20.0000000000       19.1733000000       19.6911000000 H         0.0000000000         0.0000000000        -0.0000000000      137.1163510067       73.3259675501
atom        20.0000000000       19.9977000000       20.2739000000 O         0.0000000000         0.0000000000         0.0000000000       18.0173524189     -161.3942262807
energy      -380.5901988202
charge 0
end
begin
comment generated by PY
lattice        40.0000000000         0.0000000000         0.0000000000
lattice         0.0000000000        40.0000000000         0.0000000000
lattice         0.0000000000         0.0000000000        40.0000000000
atom        20.0000000000       20.7858000000       19.6737000000 H         0.0000000000         0.0000000000         0.0000000000     -126.0876745187       79.0764596791
atom        20.0000000000       19.2553000000       19.7171000000 H         0.0000000000         0.0000000000        -0.0000000000       81.3799299609       43.2530580218
atom        20.0000000000       19.9974000000       20.2712000000 O         0.0000000000         0.0000000000        -0.0000000000       44.7077445578     -122.3295946404
energy      -404.3095050905
charge 0
end
begin
comment generated by PY
lattice        40.0000000000         0.0000000000         0.0000000000
lattice         0.0000000000        40.0000000000         0.0000000000
lattice         0.0000000000         0.0000000000        40.0000000000
atom        20.0000000000       20.7647000000       19.7454000000 H         0.0000000000         0.0000000000         0.0000000000      -86.1386615526       32.9118816518
atom        20.0000000000       19.1881000000       19.7214000000 H         0.0000000000         0.0000000000         0.0000000000      131.3424401001       63.5520914544
atom        20.0000000000       20.0029000000       20.2665000000 O         0.0000000000         0.0000000000        -0.0000230605      -45.2033554869      -96.4641731061
energy      -404.2404768000
charge 0
end
begin
comment generated by PY
lattice        40.0000000000         0.0000000000         0.0000000000
lattice         0.0000000000        40.0000000000         0.0000000000
lattice         0.0000000000         0.0000000000        40.0000000000
atom        20.0000000000       20.8690000000       19.7063000000 H         0.0000000000         0.0000000000         0.0000000000     -156.5928455785       72.6914090030
atom        20.0000000000       19.1668000000       19.7331000000 H         0.0000000000         0.0000000000         0.0000000000      135.1303261572       57.3331967721
atom        20.0000000000       19.9978000000       20.2682000000 O         0.0000000000         0.0000000000        -0.0000000000       21.4629424818     -130.0242827146
energy      -386.4453514241
charge 0
end
begin
comment generated by PY
lattice        40.0000000000         0.0000000000         0.0000000000
lattice         0.0000000000        40.0000000000         0.0000000000
lattice         0.0000000000         0.0000000000        40.0000000000
atom        20.0000000000       20.7815000000       19.7046000000 H         0.0000000000         0.0000000000        -0.0000000000     -116.2287614080       63.5332779281
atom        20.0000000000       19.2372000000       19.7229000000 H         0.0000000000         0.0000000000        -0.0000000000       95.1260792813       47.3734444528
atom        20.0000000000       19.9988000000       20.2689000000 O         0.0000000000         0.0000000000         0.0000230605       21.1019190661     -110.9064223808
energy      -406.0158014552
charge 0
end
begin
comment generated by PY
lattice        40.0000000000         0.0000000000         0.0000000000
lattice         0.0000000000        40.0000000000         0.0000000000
lattice         0.0000000000         0.0000000000        40.0000000000
atom        20.0000000000       20.7467000000       19.7222000000 H         0.0000000000         0.0000000000        -0.0000000000      -80.4255911926       39.3077015687
atom        20.0000000000       19.1970000000       19.6821000000 H         0.0000000000         0.0000000000        -0.0000000000      133.3700345594       78.8421039191
atom        20.0000000000       20.0035000000       20.2704000000 O         0.0000000000         0.0000000000         0.0000230605      -52.9450433668     -118.1495054878
energy      -402.8415160260
charge 0
end
begin
comment generated by PY
lattice        40.0000000000         0.0000000000         0.0000000000
lattice         0.0000000000        40.0000000000         0.0000000000
lattice         0.0000000000         0.0000000000        40.0000000000
atom        20.0000000000       20.9096000000       19.6994000000 H         0.0000000000         0.0000000000         0.0000000000     -168.5773436284       75.0442443044
atom        20.0000000000       19.1480000000       19.7413000000 H         0.0000000000         0.0000000000         0.0000000000      141.3645896861       55.5517888690
atom        20.0000000000       19.9964000000       20.2681000000 O         0.0000000000         0.0000000000        -0.0000000000       27.2126539422     -130.5962562339
energy      -377.1626154897
charge 0
end
begin
comment generated by PY
lattice        40.0000000000         0.0000000000         0.0000000000
lattice         0.0000000000        40.0000000000         0.0000000000
lattice         0.0000000000         0.0000000000        40.0000000000
atom        20.0000000000       20.8190000000       19.7153000000 H         0.0000000000         0.0000000000         0.0000230605     -136.9606661716       66.8698831632
atom        20.0000000000       19.2331000000       19.7542000000 H         0.0000000000         0.0000000000         0.0000000000       83.0848584794       28.8968516562
atom        20.0000000000       19.9967000000       20.2663000000 O         0.0000000000         0.0000000000        -0.0000230605       53.8758076922      -95.7670578799
energy      -402.9753020727
charge 0
end
begin
comment generated by PY
lattice        40.0000000000         0.0000000000         0.0000000000
lattice         0.0000000000        40.0000000000         0.0000000000
lattice         0.0000000000         0.0000000000        40.0000000000
atom        20.0000000000       20.7082000000       19.7378000000 H         0.0000000000         0.0000000000        -0.0000000000      -32.8304708113        8.1750891419
atom        20.0000000000       19.2255000000       19.6821000000 H         0.0000000000         0.0000000000        -0.0000000000      119.9809447813       75.4815963735
atom        20.0000000000       20.0041000000       20.2694000000 O         0.0000000000         0.0000000000         0.0000230605      -87.1501739700      -83.6567855154
energy      -409.1267031270
charge 0
end
begin
comment generated by PY
lattice        40.0000000000         0.0000000000         0.0000000000
lattice         0.0000000000        40.0000000000         0.0000000000
lattice         0.0000000000         0.0000000000        40.0000000000
atom        20.0000000000       20.7972000000       19.7153000000 H         0.0000000000         0.0000000000        -0.0000000000     -118.4022161469       57.3949957839
atom        20.0000000000       19.1464000000       19.6854000000 H         0.0000000000         0.0000000000        -0.0000000000      152.4981169451       80.5605916071
atom        20.0000000000       20.0035000000       20.2706000000 O         0.0000000000         0.0000000000         0.0000230605      -34.0957007982     -137.9557873910
energy      -390.4122052268
charge 0
end
begin
comment generated by PY
lattice        40.0000000000         0.0000000000         0.0000000000
lattice         0.0000000000        40.0000000000         0.0000000000
lattice         0.0000000000         0.0000000000        40.0000000000
atom        20.0000000000       20.9061000000       19.7028000000 H         0.0000000000         0.0000000000         0.0000000000     -169.3040300677       75.9545006682
atom        20.0000000000       19.1875000000       19.7549000000 H         0.0000000000         0.0000000000        -0.0000000000      115.0014541087       40.4537155424
atom        20.0000000000       19.9941000000       20.2671000000 O         0.0000000000         0.0000000000         0.0000000000       54.3028759590     -116.4082931500
energy      -383.7950772072
charge 0
end
begin
comment generated by PY
lattice        40.0000000000         0.0000000000         0.0000000000
lattice         0.0000000000        40.0000000000         0.0000000000
lattice         0.0000000000         0.0000000000        40.0000000000
atom        20.0000000000       20.7535000000       19.7264000000 H         0.0000000000         0.0000000000        -0.0000000000      -87.0560733983       42.4849457698
atom        20.0000000000       19.2334000000       19.7145000000 H         0.0000000000         0.0000000000        -0.0000000000      103.3458353476       54.7750407673
atom        20.0000000000       20.0008000000       20.2681000000 O         0.0000000000         0.0000000000         0.0000000000      -16.2899719493      -97.2598095977
energy      -409.3323035102
charge 0
end
begin
comment generated by PY
lattice        40.0000000000         0.0000000000         0.0000000000
lattice         0.0000000000        40.0000000000         0.0000000000
lattice         0.0000000000         0.0000000000        40.0000000000
atom        20.0000000000       20.7555000000       19.7107000000 H         0.0000000000         0.0000000000        -0.0000000000      -92.2752204910       50.2229792341
atom        20.0000000000       19.1985000000       19.6700000000 H         0.0000000000         0.0000000000        -0.0000000000      133.7645192031       82.7001156713
atom        20.0000000000       20.0029000000       20.2719000000 O         0.0000000000         0.0000000000         0.0000230605      -41.4894756516     -132.9232949054
energy      -400.6319094804
charge 0
end
begin
comment generated by PY
lattice        40.0000000000         0.0000000000         0.0000000000
lattice         0.0000000000        40.0000000000         0.0000000000
lattice         0.0000000000         0.0000000000        40.0000000000
atom        20.0000000000       20.8892000000       19.6940000000 H         0.0000000000         0.0000000000         0.0000230605     -164.5089004845       78.6791249117
atom        20.0000000000       19.1954000000       19.7424000000 H         0.0000000000         0.0000000000         0.0000000000      114.0532337972       44.8767357454
atom        20.0000000000       19.9947000000       20.2684000000 O         0.0000000000         0.0000000000        -0.0000230605       50.4552897478     -123.5557375966
energy      -386.1834034186
charge 0
end
begin
comment generated by PY
lattice        40.0000000000         0.0000000000         0.0000000000
lattice         0.0000000000        40.0000000000         0.0000000000
lattice         0.0000000000         0.0000000000        40.0000000000
atom        20.0000000000       20.7625000000       19.7702000000 H         0.0000000000         0.0000000000        -0.0000000000      -73.7366921409       19.2707856151
atom        20.0000000000       19.2132000000       19.7586000000 H         0.0000000000         0.0000000000        -0.0000000000      104.0216947866       39.0527622392
atom        20.0000000000       20.0015000000       20.2626000000 O         0.0000000000         0.0000000000         0.0000000000      -30.2849026456      -58.3240478543
energy      -410.3231219390
charge 0
end
begin
comment generated by PY
lattice        40.0000000000         0.0000000000         0.0000000000
lattice         0.0000000000        40.0000000000         0.0000000000
lattice         0.0000000000         0.0000000000        40.0000000000
atom        20.0000000000       20.7271000000       19.7305000000 H         0.0000000000         0.0000000000         0.0000000000      -57.8234252989       25.0666909113
atom        20.0000000000       19.2118000000       19.6778000000 H         0.0000000000         0.0000000000        -0.0000000000      127.6127760941       78.9379728411
atom        20.0000000000       20.0038000000       20.2701000000 O         0.0000000000         0.0000000000        -0.0000000000      -69.7897507952     -104.0044637524
energy      -406.0745373539
charge 0
end
begin
comment generated by PY
lattice        40.0000000000         0.0000000000         0.0000000000
lattice         0.0000000000        40.0000000000         0.0000000000
lattice         0.0000000000         0.0000000000        40.0000000000
atom        20.0000000000       20.8535000000       19.6688000000 H         0.0000000000         0.0000000000        -0.0000000000     -152.5758018627       85.4217798796
atom        20.0000000000       19.1966000000       19.7020000000 H         0.0000000000         0.0000000000        -0.0000000000      124.5746941580       65.1376504024
atom        20.0000000000       19.9969000000       20.2725000000 O         0.0000000000         0.0000000000         0.0000000000       28.0014077047     -150.5597072214
energy      -387.2233409880
charge 0
end
begin
comment generated by PY
lattice        40.0000000000         0.0000000000         0.0000000000
lattice         0.0000000000        40.0000000000         0.0000000000
lattice         0.0000000000         0.0000000000        40.0000000000
atom        20.0000000000       20.8663000000       19.7337000000 H         0.0000000000         0.0000000000        -0.0000000000     -155.7523904711       64.9547838533
atom        20.0000000000       19.1964000000       19.7670000000 H         0.0000000000         0.0000000000        -0.0000230605      107.2821570137       34.0474487846
atom        20.0000000000       19.9961000000       20.2644000000 O         0.0000000000         0.0000000000         0.0000230605       48.4694334575      -99.0018326378
energy      -394.3150124906
charge 0
end
begin
comment generated by PY
lattice        40.0000000000         0.0000000000         0.0000000000
lattice         0.0000000000        40.0000000000         0.0000000000
lattice         0.0000000000         0.0000000000        40.0000000000
atom        20.0000000000       20.7235000000       19.7609000000 H         0.0000000000         0.0000000000        -0.0000000000      -33.0868575939        0.0648079616
atom        20.0000000000       19.2078000000       19.7102000000 H         0.0000000000         0.0000000000        -0.0000230605      124.6667660061       66.0935958299
atom        20.0000000000       20.0043000000       20.2662000000 O         0.0000000000         0.0000000000         0.0000230605      -91.5794084122      -66.1580268520
energy      -408.7543565304
charge 0
end
begin
comment generated by PY
lattice        40.0000000000         0.0000000000         0.0000000000
lattice         0.0000000000        40.0000000000         0.0000000000
lattice         0.0000000000         0.0000000000        40.0000000000
atom        20.0000000000       20.8226000000       19.6417000000 H         0.0000000000         0.0000000000        -0.0000000000     -141.8717647145       93.4459132019
atom        20.0000000000       19.2101000000       19.6637000000 H         0.0000000000         0.0000000000        -0.0000000000      124.7417538201       80.5072973560
atom        20.0000000000       19.9980000000       20.2766000000 O         0.0000000000         0.0000000000         0.0000000000       17.1297108944     -173.9533874974
energy      -387.6098456943
charge 0
end
begin
comment generated by PY
lattice        40.0000000000         0.0000000000         0.0000000000
lattice         0.0000000000        40.0000000000         0.0000000000
lattice         0.0000000000         0.0000000000        40.0000000000
atom        20.0000000000       20.8570000000       19.7071000000 H         0.0000000000         0.0000000000        -0.0000000000     -153.4629131792       74.0303416337
atom        20.0000000000       19.2094000000       19.7377000000 H         0.0000000000         0.0000000000        -0.0000000000      107.6282846009       44.1948156364
atom        20.0000000000       19.9958000000       20.2679000000 O         0.0000000000         0.0000000000         0.0000000000       45.8348285782     -118.2251572701
energy      -393.7691174976
charge 0
end
begin
comment generated by PY
lattice        40.0000000000         0.0000000000         0.0000000000
lattice         0.0000000000        40.0000000000         0.0000000000
lattice         0.0000000000         0.0000000000        40.0000000000
atom        20.0000000000       20.7490000000       19.7807000000 H         0.0000000000         0.0000000000         0.0000230605      -49.7466891948        3.7528850482
atom        20.0000000000       19.1952000000       19.7347000000 H         0.0000000000         0.0000000000         0.0000230605      126.4489755612       56.4701817713
atom        20.0000000000       20.0035000000       20.2635000000 O         0.0000000000         0.0000000000        -0.0000230605      -76.7018863663      -60.2225668194
energy      -407.8911424052
charge 0
end
begin
comment generated by PY
lattice        40.0000000000         0.0000000000         0.0000000000
lattice         0.0000000000        40.0000000000         0.0000000000
lattice         0.0000000000         0.0000000000        40.0000000000
atom        20.0000000000       20.7702000000       19.6882000000 H         0.0000000000         0.0000000000        -0.0000000000     -109.3376211427       67.6043503430
atom        20.0000000000       19.2048000000       19.6505000000 H         0.0000000000         0.0000000000        -0.0000000000      132.2301661309       88.3151186625
atom        20.0000000000       20.0016000000       20.2745000000 O         0.0000000000         0.0000000000         0.0000230605      -22.8928449882     -155.9195920661
energy      -396.6550074273
charge 0
end
begin
comment generated by PY
lattice        40.0000000000         0.0000000000         0.0000000000
lattice         0.0000000000        40.0000000000         0.0000000000
lattice         0.0000000000         0.0000000000        40.0000000000
atom        20.0000000000       20.8749000000       19.6491000000 H         0.0000000000         0.0000000000         0.0000000000     -158.9132684555       92.1118445464
atom        20.0000000000       19.2108000000       19.7006000000 H         0.0000000000         0.0000000000        -0.0000000000      115.3914556352       61.1776301337
atom        20.0000000000       19.9946000000       20.2738000000 O         0.0000000000         0.0000000000         0.0000000000       43.5215358808     -153.2898746801
energy      -383.4712246622
charge 0
end
begin
comment generated by PY
lattice        40.0000000000         0.0000000000         0.0000000000
lattice         0.0000000000        40.0000000000         0.0000000000
lattice         0.0000000000         0.0000000000        40.0000000000
atom        20.0000000000       20.8179000000       19.7593000000 H         0.0000000000         0.0000000000         0.0000230605     -124.5059657011       46.8065295136
atom        20.0000000000       19.1985000000       19.7554000000 H         0.0000000000         0.0000000000         0.0000230605      113.5127509220       41.5107874518
atom        20.0000000000       19.9990000000       20.2635000000 O         0.0000000000         0.0000000000        -0.0000230605       10.9937547790      -88.3173169654
energy      -402.5829571766
charge 0
end
begin
comment generated by PY
lattice        40.0000000000         0.0000000000         0.0000000000
lattice         0.0000000000        40.0000000000         0.0000000000
lattice         0.0000000000         0.0000000000        40.0000000000
atom        20.0000000000       20.7204000000       19.7677000000 H         0.0000000000         0.0000000000        -0.0000000000      -23.4341087036       -7.1653056626
atom        20.0000000000       19.2073000000       19.7079000000 H         0.0000000000         0.0000000000        -0.0000000000      126.0412214822       67.1456998841
atom        20.0000000000       20.0045000000       20.2659000000 O         0.0000000000         0.0000000000         0.0000230605     -102.6069127786      -59.9808172821
energy      -408.6001449614
charge 0
end
begin
comment generated by PY
lattice        40.0000000000         0.0000000000         0.0000000000
lattice         0.0000000000        40.0000000000         0.0000000000
lattice         0.0000000000         0.0000000000        40.0000000000
atom        20.0000000000       20.8215000000       19.6760000000 H         0.0000000000         0.0000000000        -0.0000000000     -140.0734867040       81.9543837593
atom        20.0000000000       19.2151000000       19.6919000000 H         0.0000000000         0.0000000000        -0.0000000000      117.7637540637       66.8635972465
atom        20.0000000000       19.9977000000       20.2727000000 O         0.0000000000         0.0000000000         0.0000230605       22.3095095798     -148.8179810059
energy      -394.0815598132
charge 0
end
begin
comment generated by PY
lattice        40.0000000000         0.0000000000         0.0000000000
lattice         0.0000000000        40.0000000000         0.0000000000
lattice         0.0000000000         0.0000000000        40.0000000000
atom        20.0000000000       20.8258000000       19.7181000000 H         0.0000000000         0.0000000000        -0.0000230605     -137.5634125400       66.2730915629
atom        20.0000000000       19.2081000000       19.7259000000 H         0.0000000000         0.0000000000        -0.0000230605      114.3090626964       52.1510981140
atom        20.0000000000       19.9979000000       20.2679000000 O         0.0000000000         0.0000000000         0.0000230605       23.2546267831     -118.4245666163
energy      -398.4546725845
charge 0
end
begin
comment generated by PY
lattice        40.0000000000         0.0000000000         0.0000000000
lattice         0.0000000000        40.0000000000         0.0000000000
lattice         0.0000000000         0.0000000000        40.0000000000
atom        20.0000000000       20.7282000000       19.8098000000 H         0.0000000000         0.0000000000        -0.0000000000        5.7011059817      -35.4817839804
atom        20.0000000000       19.1794000000       19.7457000000 H         0.0000000000         0.0000000000        -0.0000000000      136.1088090749       56.9521897710
atom        20.0000000000       20.0058000000       20.2609000000 O         0.0000000000         0.0000000000         0.0000000000     -141.8094150565      -21.4705057906
energy      -406.3430573036
charge 0
end
begin
comment generated by PY
lattice        40.0000000000         0.0000000000         0.0000000000
lattice         0.0000000000        40.0000000000         0.0000000000
lattice         0.0000000000         0.0000000000        40.0000000000
atom        20.0000000000       20.8602000000       19.6559000000 H         0.0000000000         0.0000000000        -0.0000000000     -154.7070884628       90.3175017384
atom        20.0000000000       19.2099000000       19.6947000000 H         0.0000000000         0.0000000000        -0.0000000000      118.1655184230       64.8096723608
atom        20.0000000000       19.9956000000       20.2738000000 O         0.0000000000         0.0000000000         0.0000230605       36.5418469792     -155.1268740992
energy      -385.9604071757
charge 0
end
begin
comment generated by PY
lattice        40.0000000000         0.0000000000         0.0000000000
lattice         0.0000000000        40.0000000000         0.0000000000
lattice         0.0000000000         0.0000000000        40.0000000000
atom        20.0000000000       20.8181000000       19.6703000000 H         0.0000000000         0.0000000000        -0.0000000000     -139.4494830059       84.1594889785