begin
comment generated by PY
lattice        40.0000000000         0.0000000000         0.0000000000
lattice         0.0000000000        40.0000000000         0.0000000000
lattice         0.0000000000         0.0000000000        40.0000000000
atom        18.5475000000       19.5302000000       20.8880000000 H         0.0000000000         0.0000000000        74.6325244589       19.7929781253      -99.1433163311
atom        18.5475000000       19.5302000000       19.1120000000 H         0.0000000000         0.0000000000        74.6328011855       19.7929320043       99.1434546943
atom        19.2807000000       20.8931000000       20.0000000000 H         0.0000000000         0.0000000000        -6.1523165381     -125.8596807027       -0.0000000000
atom        19.1540000000       19.7937000000       20.0000000000 C         0.0000000000         0.0000000000        42.8096333054       -9.0985135715       -0.0000691816
atom        21.4370000000       19.8898000000       20.0000000000 O         0.0000000000         0.0000000000      -238.8144254071     -207.0978749173        0.0000230605
atom        20.4941000000       19.0682000000       20.0000000000 N         0.0000000000         0.0000000000        52.8921599349      302.4702590619       -0.0001153027
energy     -1001.5719464095
charge 0
end
begin
comment generated by PY
lattice        40.0000000000         0.0000000000         0.0000000000
lattice         0.0000000000        40.0000000000         0.0000000000
lattice         0.0000000000         0.0000000000        40.0000000000
atom        18.8920000000       19.4092000000       18.9254000000 H         0.0000000000         0.0000000000        26.3282783566       32.5238793551      123.8118245992
atom        19.2766000000       20.8325000000       19.8493000000 H         0.0000000000         0.0000000000       -19.4701858030     -116.2408695051       14.3411581091
atom        18.4065000000       19.5674000000       20.7289000000 H         0.0000000000         0.0000000000        75.7373656071       12.7735284293      -83.6591812586
atom        19.1177000000       19.7618000000       19.9638000000 C         0.0000000000         0.0000000000       104.3787341836       17.6723631674        0.7552651821
atom        21.4383000000       19.7338000000       19.6891000000 O         0.0000000000         0.0000000000      -247.1268694899     -114.0349727699      184.4850591930
atom        20.5097000000       19.2843000000       20.4218000000 N         0.0000000000         0.0000000000        60.1522771455      167.3060813232     -239.7330258248
energy      -998.3353514747
charge 0
end
begin
comment generated by PY
lattice        40.0000000000         0.0000000000         0.0000000000
lattice         0.0000000000        40.0000000000         0.0000000000
lattice         0.0000000000         0.0000000000        40.0000000000
atom        19.2591000000       20.6964000000       20.5952000000 H         0.0000000000         0.0000000000        -0.1888582871      -97.4059248139      -55.9128135504
atom        18.7201000000       19.0135000000       20.6635000000 H         0.0000000000         0.0000000000        43.1058339589       85.6038755428      -77.2598694905
atom        18.5364000000       20.0685000000       19.1564000000 H         0.0000000000         0.0000000000        71.3255994893      -45.9547337499       93.3700775401
atom        19.1543000000       19.7990000000       20.0283000000 C         0.0000000000         0.0000000000        67.6772054168      -31.2455414356      -10.7028401869
atom        21.4281000000       19.7955000000       20.2647000000 O         0.0000000000         0.0000000000      -236.4204173180     -158.1422136239     -159.9859370520
atom        20.4940000000       19.1840000000       19.6437000000 N         0.0000000000         0.0000000000        54.5000367402      247.1450380805      210.4915827397
energy      -999.2011129508
charge 0
end
begin
comment generated by PY
lattice        40.0000000000         0.0000000000         0.0000000000
lattice         0.0000000000        40.0000000000         0.0000000000
lattice         0.0000000000         0.0000000000        40.0000000000
atom        18.5465000000       20.1906000000       19.2408000000 H         0.0000000000         0.0000000000        72.8931171801      -51.4709871797       91.4811001905
atom        19.1942000000       20.4284000000       20.9225000000 H         0.0000000000         0.0000000000        -0.6586036409      -82.5469417754      -96.6048357968
atom        18.6393000000       18.7621000000       20.3222000000 H         0.0000000000         0.0000000000        71.3484082887      110.2822161670      -32.2857847022
atom        19.1629000000       19.7435000000       20.0514000000 C         0.0000000000         0.0000000000        52.5294522924        7.7836971734      -44.0498759227
atom        21.4123000000       19.5187000000       20.3898000000 O         0.0000000000         0.0000000000      -230.6845393372       16.9729172539     -229.2795777778
atom        20.5145000000       19.5763000000       19.4758000000 N         0.0000000000         0.0000000000        34.5725602774       -1.0207916392      310.7389970695
energy      -994.4622857786
charge 0
end
begin
comment generated by PY
lattice        40.0000000000         0.0000000000         0.0000000000
lattice         0.0000000000        40.0000000000         0.0000000000
lattice         0.0000000000         0.0000000000        40.0000000000
atom        18.2793000000       19.4688000000       19.2153000000 H         0.0000000000         0.0000000000       107.8505230651       21.7614677680       94.2058641760
atom        18.7668000000       20.7588000000       20.3741000000 H         0.0000000000         0.0000000000        52.4054250537     -112.9499390988      -43.1546275658
atom        19.0471000000       19.1145000000       20.9919000000 H         0.0000000000         0.0000000000        10.5449556166       62.1968368428     -114.6675940318
atom        19.1089000000       19.7159000000       20.0425000000 C         0.0000000000         0.0000000000        25.7894701854       28.8045837071       -3.0218830189
atom        21.4171000000       19.3849000000       20.3872000000 O         0.0000000000         0.0000000000      -226.4074716324       95.9624280671     -235.4160602235
atom        20.5758000000       19.7556000000       19.4795000000 N         0.0000000000         0.0000000000        29.8166807722      -95.7753772862      302.0537337245
energy      -957.1709793112
charge 0
end
begin
comment generated by PY
lattice        40.0000000000         0.0000000000         0.0000000000
lattice         0.0000000000        40.0000000000         0.0000000000
lattice         0.0000000000         0.0000000000        40.0000000000
atom        18.5321000000       20.0717000000       19.2847000000 H         0.0000000000         0.0000000000        66.1826486308      -39.0736573103       75.0118802438
atom        19.0445000000       20.4889000000       20.9095000000 H         0.0000000000         0.0000000000        30.5708729442      -87.5574709695      -98.3926030591
atom        18.7655000000       18.7467000000       20.4821000000 H         0.0000000000         0.0000000000        56.5845774026      112.6309011941      -55.2320727578
atom        19.1718000000       19.7394000000       20.0585000000 C         0.0000000000         0.0000000000        21.5575612775       -1.0503249060      -13.2638811174
atom        21.3601000000       19.5011000000       20.3737000000 O         0.0000000000         0.0000000000      -168.0069172977       23.1574745598     -209.2547323173
atom        20.5691000000       19.6052000000       19.4744000000 N         0.0000000000         0.0000000000        -6.8882660179       -8.1069525681      301.1311320684
energy     -1009.9439304842
charge 0
end
begin
comment generated by PY
lattice        40.0000000000         0.0000000000         0.0000000000
lattice         0.0000000000        40.0000000000         0.0000000000
lattice         0.0000000000         0.0000000000        40.0000000000
atom        18.4903000000       20.3258000000       19.4292000000 H         0.0000000000         0.0000000000        72.5387705153      -51.9571392754       45.6134878378
atom        19.2207000000       20.1887000000       20.9874000000 H         0.0000000000         0.0000000000       -12.4804312687      -44.0051040478      -96.8327283815
atom        18.6304000000       18.8236000000       20.1442000000 H         0.0000000000         0.0000000000        59.1512258951       90.2582602334      -15.4875680167
atom        19.1162000000       19.7591000000       20.0283000000 C         0.0000000000         0.0000000000        81.9234563845      -20.8775428536       21.4266929355
atom        21.4244000000       19.5454000000       20.3741000000 O         0.0000000000         0.0000000000      -237.9834887999        1.1156068363     -208.2652230689
atom        20.5434000000       19.5354000000       19.5082000000 N         0.0000000000         0.0000000000        36.8501903343       25.4657791070      253.5453786938
energy     -1022.0136119421
charge 0
end
begin
comment generated by PY
lattice        40.0000000000         0.0000000000         0.0000000000
lattice         0.0000000000        40.0000000000         0.0000000000
lattice         0.0000000000         0.0000000000        40.0000000000
atom        18.5403000000       20.2198000000       19.3237000000 H         0.0000000000         0.0000000000        72.7228464383      -53.8077633528       75.8054489113
atom        19.1737000000       20.4008000000       20.9924000000 H         0.0000000000         0.0000000000         8.1766265367      -84.0905675991     -108.5631023093
atom        18.6644000000       18.7880000000       20.2809000000 H         0.0000000000         0.0000000000        67.4735461791       98.9843371127      -25.5534382928
atom        19.1716000000       19.7347000000       20.0617000000 C         0.0000000000         0.0000000000        36.9549089719       23.1131647852      -34.1305664136
atom        21.3807000000       19.5237000000       20.3920000000 O         0.0000000000         0.0000000000      -201.6585013477       13.7757022632     -238.0989551539
atom        20.5433000000       19.5761000000       19.4564000000 N         0.0000000000         0.0000000000        16.3303032217        2.0253729118      330.5409363188
energy     -1000.8906682473
charge 0
end
begin
comment generated by PY
lattice        40.0000000000         0.0000000000         0.0000000000
lattice         0.0000000000        40.0000000000         0.0000000000
lattice         0.0000000000         0.0000000000        40.0000000000
atom        18.2748000000       19.8013000000       19.2436000000 H         0.0000000000         0.0000000000       111.7303147339      -10.5864292929       86.3263467736
atom        19.0238000000       20.7105000000       20.6802000000 H         0.0000000000         0.0000000000        19.5881592771     -118.1841061328      -71.7083545579
atom        18.9089000000       18.7819000000       20.7108000000 H         0.0000000000         0.0000000000        33.6884639014      113.8142579250      -75.7188147386
atom        19.1300000000       19.7243000000       20.0462000000 C         0.0000000000         0.0000000000        27.5011416230        8.7130812982      -10.2734227743
atom        21.4072000000       19.4412000000       20.3966000000 O         0.0000000000         0.0000000000      -223.9745252104       62.6985743815     -241.4635651792
atom        20.5609000000       19.6876000000       19.4618000000 N         0.0000000000         0.0000000000        31.4665656748      -56.4553951185      312.8377335370
energy      -957.2532416822
charge 0
end
begin
comment generated by PY
lattice        40.0000000000         0.0000000000         0.0000000000
lattice         0.0000000000        40.0000000000         0.0000000000
lattice         0.0000000000         0.0000000000        40.0000000000
atom        18.3812000000       19.5100000000       19.2380000000 H         0.0000000000         0.0000000000        97.2039282096       26.7449771351       87.4036669759
atom        18.8949000000       20.6793000000       20.4437000000 H         0.0000000000         0.0000000000        32.8628791800      -91.2918250599      -41.7539688875
atom        19.1217000000       18.9763000000       20.8152000000 H         0.0000000000         0.0000000000        -1.2743174698       86.5499024585      -83.1359200947
atom        19.1375000000       19.7368000000       20.0371000000 C         0.0000000000         0.0000000000        68.0435717078      -33.4102927485      -17.6306312305
atom        21.3898000000       19.4067000000       20.3664000000 O         0.0000000000         0.0000000000      -215.6219835790       77.2487329881     -204.9510304088
atom        20.5607000000       19.7254000000       19.5140000000 N         0.0000000000         0.0000000000        18.7856550119      -65.8412178340      260.0673536456
energy     -1014.8567933696
charge 0
end
begin
comment generated by PY
lattice        40.0000000000         0.0000000000         0.0000000000
lattice         0.0000000000        40.0000000000         0.0000000000
lattice         0.0000000000         0.0000000000        40.0000000000
atom        18.6613000000       18.8202000000       19.6622000000 H         0.0000000000         0.0000000000        63.1073700274       91.2883837310       30.0146922838
atom        18.5718000000       20.5246000000       19.7618000000 H         0.0000000000         0.0000000000        62.0005854827      -79.6580163645       17.9170007155
atom        19.0658000000       19.6307000000       21.0978000000 H         0.0000000000         0.0000000000        20.5264957065        4.7236837227     -110.3974461918
atom        19.1466000000       19.6989000000       20.0371000000 C         0.0000000000         0.0000000000        44.1949851317       15.7809959884        4.2511560341
atom        21.3587000000       19.2934000000       20.3042000000 O         0.0000000000         0.0000000000      -179.7093619538      144.9699018235     -171.3176137475
atom        20.5954000000       19.9010000000       19.5833000000 N         0.0000000000         0.0000000000       -10.1198743945     -177.1051789011      229.5319928060
energy     -1026.3925635325
charge 0
end
begin
comment generated by PY
lattice        40.0000000000         0.0000000000         0.0000000000
lattice         0.0000000000        40.0000000000         0.0000000000
lattice         0.0000000000         0.0000000000        40.0000000000
atom        18.9089000000       19.0681000000       20.8966000000 H         0.0000000000         0.0000000000        38.1046913930       65.9016190667      -99.6248979661
atom        18.8228000000       19.0685000000       19.1261000000 H         0.0000000000         0.0000000000        41.1801889122       73.9433272362       95.9764988212
atom        18.4000000000       20.5684000000       20.1177000000 H         0.0000000000         0.0000000000        94.9191261326      -96.3740438908      -21.7846848175
atom        19.1223000000       19.6887000000       20.0041000000 C         0.0000000000         0.0000000000        21.0658590875        9.4777698774       10.1204692479
atom        21.3711000000       19.1278000000       20.0902000000 O         0.0000000000         0.0000000000      -199.0024250361      255.1599955249      -52.8798627446
atom        20.6141000000       20.1184000000       19.8834000000 N         0.0000000000         0.0000000000         3.7326695108     -308.1085847539       68.1924374592
energy      -982.7909141207
charge 0
end
begin
comment generated by PY
lattice        40.0000000000         0.0000000000         0.0000000000
lattice         0.0000000000        40.0000000000         0.0000000000
lattice         0.0000000000         0.0000000000        40.0000000000
atom        18.9342000000       19.2405000000       21.1086000000 H         0.0000000000         0.0000000000        32.1561611428       53.1861064797     -131.6819286861
atom        19.0348000000       18.8624000000       19.2325000000 H         0.0000000000         0.0000000000        16.4505859193       95.7380340474       90.3204066600
atom        18.4438000000       20.6147000000       19.7884000000 H         0.0000000000         0.0000000000        91.9942203364     -110.6153667858       24.5172472801
atom        19.1743000000       19.6894000000       19.9962000000 C         0.0000000000         0.0000000000        53.8594902643       20.0348127513        6.6304977748
atom        21.3349000000       19.1282000000       20.0463000000 O         0.0000000000         0.0000000000      -180.0420325512      241.8781888449      -26.5223060499
atom        20.5908000000       20.1164000000       19.9412000000 N         0.0000000000         0.0000000000       -14.4182020510     -300.2220753375       36.7359060816
energy      -981.3434902566
charge 0
end
begin
comment generated by PY
lattice        40.0000000000         0.0000000000         0.0000000000
lattice         0.0000000000        40.0000000000         0.0000000000
lattice         0.0000000000         0.0000000000        40.0000000000
atom        18.7530000000       19.4813000000       21.0018000000 H         0.0000000000         0.0000000000        52.9685810850       22.6285584854     -107.9459519741
atom        18.7930000000       18.8678000000       19.3559000000 H         0.0000000000         0.0000000000        58.6154740367       77.6287784056       71.5109688845
atom        18.5099000000       20.4511000000       19.6240000000 H         0.0000000000         0.0000000000        72.7922468552      -65.2149069633       42.7596002767
atom        19.1258000000       19.6795000000       19.9933000000 C         0.0000000000         0.0000000000        15.4052977156       31.7809124878       -6.9087200747
atom        21.3830000000       19.1120000000       20.0161000000 O         0.0000000000         0.0000000000      -202.7625040025      265.7695412432       -8.2221824474
atom        20.6030000000       20.1375000000       19.9886000000 N         0.0000000000         0.0000000000         2.9809912493     -332.5930836587        8.8064153349
energy      -991.1880201786
charge 0
end
begin
comment generated by PY
lattice        40.0000000000         0.0000000000         0.0000000000
lattice         0.0000000000        40.0000000000         0.0000000000
lattice         0.0000000000         0.0000000000        40.0000000000
atom        18.8733000000       19.3037000000       20.9120000000 H         0.0000000000         0.0000000000        29.5166568372       38.7190172810      -71.5603084047
atom        18.8142000000       18.9282000000       19.3273000000 H         0.0000000000         0.0000000000        50.4484282066       70.7225447033       61.6730323081
atom        18.4758000000       20.5239000000       19.7308000000 H         0.0000000000         0.0000000000        79.1656767460      -89.4263711515       38.2696712889
atom        19.1185000000       19.6785000000       19.9993000000 C         0.0000000000         0.0000000000        34.8812457788       45.0380448557      -32.5824533072
atom        21.3725000000       19.1170000000       20.0424000000 O         0.0000000000         0.0000000000      -196.8097437853      264.2775368358      -22.7882756368
atom        20.6135000000       20.1358000000       19.9543000000 N         0.0000000000         0.0000000000         2.7982492773     -329.3305494637       26.9880337517
energy     -1001.1793975016
charge 0
end
begin
comment generated by PY
lattice        40.0000000000         0.0000000000         0.0000000000
lattice         0.0000000000        40.0000000000         0.0000000000
lattice         0.0000000000         0.0000000000        40.0000000000
atom        19.1215000000       18.8448000000       20.6689000000 H         0.0000000000         0.0000000000         9.2656727327       92.5654239010      -65.3300566797
atom        18.7309000000       19.3025000000       18.9839000000 H         0.0000000000         0.0000000000        59.2165386939       54.7332321109      116.9982618030
atom        18.4719000000       20.5894000000       20.3873000000 H         0.0000000000         0.0000000000        93.2382737601     -101.4654459239      -47.1725266438
atom        19.1827000000       19.7035000000       20.0220000000 C         0.0000000000         0.0000000000        44.7422254488       -0.3846285167      -28.0603296814
atom        21.3458000000       19.1509000000       20.1372000000 O         0.0000000000         0.0000000000      -190.8360209915      224.0689570069      -75.2461838057
atom        20.5774000000       20.0770000000       19.8214000000 N         0.0000000000         0.0000000000       -15.6265896440     -269.5177616388       98.8108250076
energy      -996.3260942899
charge 0
end
begin
comment generated by PY
lattice        40.0000000000         0.0000000000         0.0000000000
lattice         0.0000000000        40.0000000000         0.0000000000
lattice         0.0000000000         0.0000000000        40.0000000000
atom        18.6929000000       19.2469000000       20.9859000000 H         0.0000000000         0.0000000000        66.4495962609       52.7539582382     -103.7169189685
atom        18.8830000000       18.8744000000       19.2878000000 H         0.0000000000         0.0000000000        34.7613695108       94.7699838398       76.3903257604
atom        18.4177000000       20.5904000000       19.8062000000 H         0.0000000000         0.0000000000        90.1709619663     -103.7299979103       20.1598679809
atom        19.1092000000       19.6873000000       20.0148000000 C         0.0000000000         0.0000000000        -3.7616403792       11.3287119762      -10.1562162993
atom        21.3758000000       19.1273000000       20.0554000000 O         0.0000000000         0.0000000000      -194.0479610601      255.8628909353      -35.3337072400
atom        20.6298000000       20.1197000000       19.9184000000 N         0.0000000000         0.0000000000         6.4277737014     -310.9852632004       52.6567487665
energy      -974.6297401533
charge 0
end
begin
comment generated by PY
lattice        40.0000000000         0.0000000000         0.0000000000
lattice         0.0000000000        40.0000000000         0.0000000000
lattice         0.0000000000         0.0000000000        40.0000000000
atom        18.6947000000       19.4912000000       20.9806000000 H         0.0000000000         0.0000000000        68.4056165594       22.6117674357     -102.5371491890
atom        19.0648000000       18.7625000000       19.4491000000 H         0.0000000000         0.0000000000         9.4965948046      103.5020520678       55.2101562338
atom        18.5359000000       20.4581000000       19.6558000000 H         0.0000000000         0.0000000000        66.6511518354      -71.1694116321       21.0170437529
atom        19.1475000000       19.6898000000       19.9907000000 C         0.0000000000         0.0000000000        52.7590455209       -1.6819098767       17.6236148598
atom        21.3456000000       19.1324000000       20.0120000000 O         0.0000000000         0.0000000000      -179.4733096188      237.3190970534       -7.1068710606
atom        20.6099000000       20.1117000000       19.9882000000 N         0.0000000000         0.0000000000       -17.8387091016     -290.5816950483       15.7932154031
energy     -1019.5970889372
charge 0
end
begin
comment generated by PY
lattice        40.0000000000         0.0000000000         0.0000000000
lattice         0.0000000000        40.0000000000         0.0000000000
lattice         0.0000000000         0.0000000000        40.0000000000
atom        19.0504000000       18.9884000000       20.8044000000 H         0.0000000000         0.0000000000        17.9250413212       72.1448465557      -90.1378709326
atom        18.7899000000       19.2170000000       19.1173000000 H         0.0000000000         0.0000000000        46.1859261897       52.9950589083       87.9289051538
atom        18.3715000000       20.4642000000       20.2681000000 H         0.0000000000         0.0000000000       103.9860141093      -70.1121219668      -37.9811952078
atom        19.1411000000       19.7070000000       20.0010000000 C         0.0000000000         0.0000000000        32.6241205065      -20.6066664282       26.5535133957
atom        21.3542000000       19.1443000000       20.1121000000 O         0.0000000000         0.0000000000      -192.1573120745      228.8937666035      -61.0600061043
atom        20.6116000000       20.0863000000       19.8575000000 N         0.0000000000         0.0000000000        -8.5637100523     -263.3144836725       74.6959636952
energy     -1012.2489830287
charge 0
end
begin
comment generated by PY
lattice        40.0000000000         0.0000000000         0.0000000000
lattice         0.0000000000        40.0000000000         0.0000000000
lattice         0.0000000000         0.0000000000        40.0000000000
atom        18.8848000000       19.0867000000       20.9197000000 H         0.0000000000         0.0000000000        38.2529153280       60.8148797052     -101.9445412835
atom        18.7327000000       19.1283000000       19.0434000000 H         0.0000000000         0.0000000000        58.7066296299       58.4436645275      114.1641146743
atom        18.5138000000       20.6148000000       20.0076000000 H         0.0000000000         0.0000000000        75.3709693168     -107.2039133886        5.0994745787
atom        19.1280000000       19.6661000000       20.0171000000 C         0.0000000000         0.0000000000        14.7005264909       56.0704194253      -34.7040843282
atom        21.3644000000       19.1346000000       20.0951000000 O         0.0000000000         0.0000000000      -186.5309953831      254.4409253136      -53.8288291764
atom        20.6169000000       20.1211000000       19.8786000000 N         0.0000000000         0.0000000000        -0.4996263219     -322.5658755829       71.2139145350
energy      -978.1236431591
charge 0
end
begin
comment generated by PY
lattice        40.0000000000         0.0000000000         0.0000000000
lattice         0.0000000000        40.0000000000         0.0000000000
lattice         0.0000000000         0.0000000000        40.0000000000
atom        18.7123000000       19.5633000000       21.0563000000 H         0.0000000000         0.0000000000        56.5009650300       18.9157874921     -121.7054796366
atom        19.0848000000       18.7157000000       19.4635000000 H         0.0000000000         0.0000000000        13.1315633609      105.5499954588       66.2777926431
atom        18.5209000000       20.4246000000       19.3760000000 H         0.0000000000         0.0000000000        75.3457975645      -81.6730451749       80.9466012018
atom        19.1429000000       19.6753000000       20.0022000000 C         0.0000000000         0.0000000000        45.2289677463       26.7584351317      -30.3649278926
atom        21.3451000000       19.1019000000       20.0002000000 O         0.0000000000         0.0000000000      -180.1738154307      275.4155987842        0.4062488200
atom        20.6129000000       20.1595000000       20.0053000000 N         0.0000000000         0.0000000000       -10.0337282711     -344.9678186313        4.4397759247
energy      -973.4909443316
charge 0
end
begin
comment generated by PY
lattice        40.0000000000         0.0000000000         0.0000000000
lattice         0.0000000000        40.0000000000         0.0000000000
lattice         0.0000000000         0.0000000000        40.0000000000
atom        18.8523000000       19.4290000000       21.0590000000 H         0.0000000000         0.0000000000        36.3679976453       30.9691511036     -125.3095764396
atom        19.0373000000       18.8744000000       19.3143000000 H         0.0000000000         0.0000000000         9.9028082390       83.1117737261       79.2008312911
atom        18.5177000000       20.5269000000       19.6289000000 H         0.0000000000         0.0000000000        76.2908444793      -87.3459786790       45.4614973070
atom        19.1372000000       19.7043000000       19.9937000000 C         0.0000000000         0.0000000000        84.6512982410       11.9109071090       -5.5989573815
atom        21.3827000000       19.1262000000       20.0311000000 O         0.0000000000         0.0000000000      -220.7701850445      240.5306818891      -15.9102431756
atom        20.5684000000       20.0979000000       19.9697000000 N         0.0000000000         0.0000000000        13.5568595005     -279.1767351489       22.1567714591
energy     -1004.5574236534
charge 0
end
begin
comment generated by PY
lattice        40.0000000000         0.0000000000         0.0000000000
lattice         0.0000000000        40.0000000000         0.0000000000
lattice         0.0000000000         0.0000000000        40.0000000000
atom        18.7226000000       18.7974000000       19.6470000000 H         0.0000000000         0.0000000000        55.7250666826       97.9136698762       33.1709857945
atom        18.4919000000       20.5676000000       19.7238000000 H         0.0000000000         0.0000000000        83.5502818333     -102.1140725821       29.3038929557
atom        18.9626000000       19.6212000000       21.0776000000 H         0.0000000000         0.0000000000        42.6085025667        7.1965588832      -93.6019728109
atom        19.1563000000       19.7009000000       20.0555000000 C         0.0000000000         0.0000000000         3.6088246163       33.5890292131      -48.4738805043
atom        21.3531000000       19.2844000000       20.3274000000 O         0.0000000000         0.0000000000      -177.2401027462      159.4480494727     -200.1556448868