begin
comment generated by PY
lattice        40.0000000000         0.0000000000         0.0000000000
lattice         0.0000000000        40.0000000000         0.0000000000
lattice         0.0000000000         0.0000000000        40.0000000000
atom        21.1205000000       20.0000000000       20.0000000000 H         0.0000000000         0.0000000000      -141.7899854914        0.0000230605        0.0000000000
atom        20.0139000000       20.0000000000       20.0000000000 C         0.0000000000         0.0000000000      -132.8582494220        0.0000230605       -0.0000000000
atom        18.9132000000       20.0000000000       20.0000000000 N         0.0000000000         0.0000000000       274.6482349134       -0.0000461211       -0.0000000000
energy      -654.5267406850
charge 0
end
begin
comment generated by PY
lattice        40.0000000000         0.0000000000         0.0000000000
lattice         0.0000000000        40.0000000000         0.0000000000
lattice         0.0000000000         0.0000000000        40.0000000000
atom        21.0740000000       20.0541000000       19.9639000000 H         0.0000000000         0.0000000000      -122.1530057276       -9.9878033819        6.6702297001
atom        20.0174000000       19.9903000000       20.0065000000 C         0.0000000000         0.0000000000      -164.2469901895       16.1726724396      -10.8049729572
atom        18.9134000000       20.0045000000       19.9970000000 N         0.0000000000         0.0000000000       286.3999959171       -6.1848690577        4.1347432571
energy      -659.6920698884
charge 0
end
begin
comment generated by PY
lattice        40.0000000000         0.0000000000         0.0000000000
lattice         0.0000000000        40.0000000000         0.0000000000
lattice         0.0000000000         0.0000000000        40.0000000000
atom        21.1205000000       20.0362000000       19.9759000000 H         0.0000000000         0.0000000000      -142.4092095439       -6.9946953777        4.6438135286
atom        20.0127000000       19.9939000000       20.0040000000 C         0.0000000000         0.0000000000      -125.8916027526       10.6898583756       -7.0768044641
atom        18.9142000000       20.0026000000       19.9983000000 N         0.0000000000         0.0000000000       268.3008122965       -3.6951629979        2.4329909355
energy      -654.7173786335
charge 0
end
begin
comment generated by PY
lattice        40.0000000000         0.0000000000         0.0000000000
lattice         0.0000000000        40.0000000000         0.0000000000
lattice         0.0000000000         0.0000000000        40.0000000000
atom        21.1203000000       19.8870000000       20.0754000000 H         0.0000000000         0.0000000000      -145.1912490023       21.8740019742      -14.5999602657
atom        20.0074000000       20.0181000000       19.9879000000 C         0.0000000000         0.0000000000       -93.3023953471      -32.3605253143       21.6022187840
atom        18.9187000000       19.9925000000       20.0050000000 N         0.0000000000         0.0000000000       238.4936443494       10.4865464006       -7.0022985182
energy      -654.4435542984
charge 0
end
begin
comment generated by PY
lattice        40.0000000000         0.0000000000         0.0000000000
lattice         0.0000000000        40.0000000000         0.0000000000
lattice         0.0000000000         0.0000000000        40.0000000000
atom        21.1770000000       20.0427000000       19.9715000000 H         0.0000000000         0.0000000000      -156.8042164175       -8.2120909292        5.4817404159
atom        20.0107000000       19.9934000000       20.0044000000 C         0.0000000000         0.0000000000      -109.5897870202       12.1232629098       -8.1083751551
atom        18.9118000000       20.0026000000       19.9982000000 N         0.0000000000         0.0000000000       266.3948034377       -3.9111850412        2.6266116787
energy      -645.7385884221
charge 0
end
begin
comment generated by PY
lattice        40.0000000000         0.0000000000         0.0000000000
lattice         0.0000000000        40.0000000000         0.0000000000
lattice         0.0000000000         0.0000000000        40.0000000000
atom        21.1056000000       20.0441000000       19.9706000000 H         0.0000000000         0.0000000000      -134.6006433246       -8.5235962417        5.6831097145
atom        20.0188000000       19.9916000000       20.0056000000 C         0.0000000000         0.0000000000      -162.9709059731       13.8319728230       -9.2321428597
atom        18.9100000000       20.0040000000       19.9973000000 N         0.0000000000         0.0000000000       297.5715492977       -5.3084165813        3.5490231452
energy      -654.5732684296
charge 0
end
begin
comment generated by PY
lattice        40.0000000000         0.0000000000         0.0000000000
lattice         0.0000000000        40.0000000000         0.0000000000
lattice         0.0000000000         0.0000000000        40.0000000000
atom        21.0523000000       19.9109000000       20.0594000000 H         0.0000000000         0.0000000000      -112.8162493732       15.7643877330      -10.5162493716
atom        20.0170000000       20.0151000000       19.9899000000 C         0.0000000000         0.0000000000      -168.1264542316      -25.4431354874       16.9789120768
atom        18.9153000000       19.9934000000       20.0044000000 N         0.0000000000         0.0000000000       280.9427266654        9.6786777544       -6.4626627052
energy      -662.0081151997
charge 0
end
begin
comment generated by PY
lattice        40.0000000000         0.0000000000         0.0000000000
lattice         0.0000000000        40.0000000000         0.0000000000
lattice         0.0000000000         0.0000000000        40.0000000000
atom        21.1312000000       20.0330000000       19.9780000000 H         0.0000000000         0.0000000000      -147.9727788423       -6.7271314669        4.4926097432
atom        20.0065000000       19.9933000000       20.0045000000 C         0.0000000000         0.0000000000       -87.7102051672       10.4715477660       -7.0062243892
atom        18.9187000000       20.0034000000       19.9977000000 N         0.0000000000         0.0000000000       235.6829840095       -3.7444062990        2.5136046460
energy      -654.9779969783
charge 0
end
begin
comment generated by PY
lattice        40.0000000000         0.0000000000         0.0000000000
lattice         0.0000000000        40.0000000000         0.0000000000
lattice         0.0000000000         0.0000000000        40.0000000000
atom        21.1402000000       20.1225000000       19.9183000000 H         0.0000000000         0.0000000000      -150.2788544475      -23.9344168793       15.9580960258
atom        20.0071000000       19.9797000000       20.0135000000 C         0.0000000000         0.0000000000       -89.9605697134       35.5029332765      -23.6781465617
atom        18.9175000000       20.0086000000       19.9942000000 N         0.0000000000         0.0000000000       240.2394011003      -11.5685163972        7.7200405359
energy      -650.8036936445
charge 0
end
begin
comment generated by PY
lattice        40.0000000000         0.0000000000         0.0000000000
lattice         0.0000000000        40.0000000000         0.0000000000
lattice         0.0000000000         0.0000000000        40.0000000000
atom        21.1476000000       19.9100000000       20.0600000000 H         0.0000000000         0.0000000000      -148.8064338152       17.2057734181      -11.4721622235
atom        20.0166000000       20.0141000000       19.9906000000 C         0.0000000000         0.0000000000      -143.1099926752      -25.9814990423       17.3424528228
atom        18.9089000000       19.9944000000       20.0038000000 N         0.0000000000         0.0000000000       291.9164495510        8.7757756242       -5.8702405993
energy      -647.5771278937
charge 0
end
begin
comment generated by PY
lattice        40.0000000000         0.0000000000         0.0000000000
lattice         0.0000000000        40.0000000000         0.0000000000
lattice         0.0000000000         0.0000000000        40.0000000000
atom        21.0896000000       19.9382000000       20.0412000000 H         0.0000000000         0.0000000000      -128.6442261108       11.5013158385       -7.6691324133
atom        20.0186000000       20.0105000000       19.9930000000 C         0.0000000000         0.0000000000      -165.7025585680      -18.2407187102       12.1716939857
atom        18.9113000000       19.9954000000       20.0031000000 N         0.0000000000         0.0000000000       294.3467616182        6.7394228716       -4.5025385118
energy      -656.7873380002
charge 0
end
begin
comment generated by PY
lattice        40.0000000000         0.0000000000         0.0000000000
lattice         0.0000000000        40.0000000000         0.0000000000
lattice         0.0000000000         0.0000000000        40.0000000000
atom        21.0054000000       20.1675000000       19.8883000000 H         0.0000000000         0.0000000000       -95.4626600621      -28.2690017180       18.8533337377
atom        20.0135000000       19.9699000000       20.0201000000 C         0.0000000000         0.0000000000      -158.3751509394       46.9015290391      -31.2685226468
atom        18.9217000000       20.0139000000       19.9908000000 N         0.0000000000         0.0000000000       253.8368110015      -18.6325042605       12.4151889091
energy      -665.7221253714
charge 0
end
begin
comment generated by PY
lattice        40.0000000000         0.0000000000         0.0000000000
lattice         0.0000000000        40.0000000000         0.0000000000
lattice         0.0000000000         0.0000000000        40.0000000000
atom        21.0843000000       19.8749000000       20.0834000000 H         0.0000000000         0.0000000000      -133.8128263678       23.8175029894      -15.8783226094
atom        20.0078000000       20.0204000000       19.9864000000 C         0.0000000000         0.0000000000      -100.6087407385      -35.7507045248       23.8248678697
atom        18.9210000000       19.9914000000       20.0057000000 N         0.0000000000         0.0000000000       234.4215671062       11.9333015355       -7.9465821997
energy      -659.4507497187
charge 0
end
begin
comment generated by PY
lattice        40.0000000000         0.0000000000         0.0000000000
lattice         0.0000000000        40.0000000000         0.0000000000
lattice         0.0000000000         0.0000000000        40.0000000000
atom        21.1278000000       20.1244000000       19.9171000000 H         0.0000000000         0.0000000000      -147.3499943257      -24.2746600352       16.1694710739
atom        20.0071000000       19.9794000000       20.0137000000 C         0.0000000000         0.0000000000       -90.7270401614       36.0679982400      -24.0043047314
atom        18.9184000000       20.0088000000       19.9942000000 N         0.0000000000         0.0000000000       238.0770114266      -11.7933382048        7.8348636576
energy      -652.7815264641
charge 0
end
begin
comment generated by PY
lattice        40.0000000000         0.0000000000         0.0000000000
lattice         0.0000000000        40.0000000000         0.0000000000
lattice         0.0000000000         0.0000000000        40.0000000000
atom        21.1010000000       19.8136000000       20.1243000000 H         0.0000000000         0.0000000000      -138.5389371333       35.6090219895      -23.7575417486
atom        20.0139000000       20.0305000000       19.9796000000 C         0.0000000000         0.0000000000      -131.6748791519      -54.1549171026       36.1428308829
atom        18.9145000000       19.9871000000       20.0086000000 N         0.0000000000         0.0000000000       270.2148162852       18.5459951132      -12.3852891343
energy      -651.4373142321
charge 0
end
begin
comment generated by PY
lattice        40.0000000000         0.0000000000         0.0000000000
lattice         0.0000000000        40.0000000000         0.0000000000
lattice         0.0000000000         0.0000000000        40.0000000000
atom        21.0521000000       20.1435000000       19.9043000000 H         0.0000000000         0.0000000000      -113.7797086249      -25.6265383070       17.0812561121
atom        20.0213000000       19.9749000000       20.0167000000 C         0.0000000000         0.0000000000      -187.9553535112       42.0412245803      -28.0046052230
atom        18.9116000000       20.0113000000       19.9925000000 N         0.0000000000         0.0000000000       301.7350621362      -16.4146862732       10.9232791109
energy      -657.9871279519
charge 0
end
begin
comment generated by PY
lattice        40.0000000000         0.0000000000         0.0000000000
lattice         0.0000000000        40.0000000000         0.0000000000
lattice         0.0000000000         0.0000000000        40.0000000000
atom        21.0798000000       19.9510000000       20.0327000000 H         0.0000000000         0.0000000000      -124.2627690840        9.0150089182       -6.0133035945
atom        20.0182000000       20.0084000000       19.9944000000 C         0.0000000000         0.0000000000      -166.9874818125      -14.4064466573        9.5888460825
atom        18.9123000000       19.9963000000       20.0024000000 N         0.0000000000         0.0000000000       291.2502508965        5.3914446786       -3.5755655486
energy      -658.6333353361
charge 0
end
begin
comment generated by PY
lattice        40.0000000000         0.0000000000         0.0000000000
lattice         0.0000000000        40.0000000000         0.0000000000
lattice         0.0000000000         0.0000000000        40.0000000000
atom        21.1162000000       19.9547000000       20.0302000000 H         0.0000000000         0.0000000000      -141.5678560049        8.5749788614       -5.7277245530
atom        20.0116000000       20.0068000000       19.9954000000 C         0.0000000000         0.0000000000      -120.2279641523      -12.7320446974        8.5104071082
atom        18.9154000000       19.9974000000       20.0017000000 N         0.0000000000         0.0000000000       261.7958201573        4.1570658359       -2.7826925552
energy      -655.6659426062
charge 0
end
begin
comment generated by PY
lattice        40.0000000000         0.0000000000         0.0000000000
lattice         0.0000000000        40.0000000000         0.0000000000
lattice         0.0000000000         0.0000000000        40.0000000000
atom        21.1338000000       20.1918000000       19.8721000000 H         0.0000000000         0.0000000000      -149.9687435475      -37.2865524021       24.8693457671
atom        20.0029000000       19.9690000000       20.0207000000 C         0.0000000000         0.0000000000       -63.6959166825       54.0592726395      -36.0609784641
atom        18.9216000000       20.0129000000       19.9914000000 N         0.0000000000         0.0000000000       213.6643602300      -16.7727432979       11.1916096365
energy      -649.1694977589
charge 0
end
begin
comment generated by PY
lattice        40.0000000000         0.0000000000         0.0000000000
lattice         0.0000000000        40.0000000000         0.0000000000
lattice         0.0000000000         0.0000000000        40.0000000000
atom        21.1551000000       19.9127000000       20.0582000000 H         0.0000000000         0.0000000000      -153.7547988922       16.9594734317      -11.3049036250
atom        20.0063000000       20.0138000000       19.9908000000 C         0.0000000000         0.0000000000       -84.3568965080      -24.8182032509       16.5360008505
atom        18.9172000000       19.9944000000       20.0037000000 N         0.0000000000         0.0000000000       238.1118954002        7.8587167586       -5.2310572255
energy      -649.9020884563
charge 0
end
begin
comment generated by PY
lattice        40.0000000000         0.0000000000         0.0000000000
lattice         0.0000000000        40.0000000000         0.0000000000
lattice         0.0000000000         0.0000000000        40.0000000000
atom        21.0755000000       20.1191000000       19.9206000000 H         0.0000000000         0.0000000000      -127.1537715413      -22.3316034965       14.8958452590
atom        20.0139000000       19.9795000000       20.0137000000 C         0.0000000000         0.0000000000      -140.4375694289       34.9764510774      -23.3445817733
atom        18.9163000000       20.0091000000       19.9939000000 N         0.0000000000         0.0000000000       267.5913409702      -12.6449475809        8.4487565144
energy      -658.8677495883
charge 0
end
begin
comment generated by PY
lattice        40.0000000000         0.0000000000         0.0000000000
lattice         0.0000000000        40.0000000000         0.0000000000
lattice         0.0000000000         0.0000000000        40.0000000000
atom        21.0532000000       19.9067000000       20.0622000000 H         0.0000000000         0.0000000000      -110.7477705168       16.3143064265      -10.8835753470
atom        20.0213000000       20.0160000000       19.9893000000 C         0.0000000000         0.0000000000      -191.7579555308      -26.8475241960       17.9267214130
atom        18.9116000000       19.9930000000       20.0047000000 N         0.0000000000         0.0000000000       302.5057260476       10.5331977695       -7.0431060661
energy      -659.9164070083
charge 0
end
begin
comment generated by PY
lattice        40.0000000000         0.0000000000         0.0000000000
lattice         0.0000000000        40.0000000000         0.0000000000
lattice         0.0000000000         0.0000000000        40.0000000000
atom        21.0859000000       19.9230000000       20.0513000000 H         0.0000000000         0.0000000000      -127.6341560284       14.2020483212       -9.4616984126
atom        20.0183000000       20.0126000000       19.9916000000 C         0.0000000000         0.0000000000      -164.6064456793      -22.2953277425       14.8465102405
atom        18.9118000000       19.9947000000       20.0035000000 N         0.0000000000         0.0000000000       292.2406017077        8.0932994213       -5.3848318279
energy      -657.1071619184
charge 0
end
begin
comment generated by PY
lattice        40.0000000000         0.0000000000         0.0000000000
lattice         0.0000000000        40.0000000000         0.0000000000
lattice         0.0000000000         0.0000000000        40.0000000000
atom        21.0884000000       20.2316000000       19.8456000000 H         0.0000000000         0.0000000000      -137.3164398865      -44.5145234327       29.6781270613
atom        20.0105000000       19.9613000000       20.0258000000 C         0.0000000000         0.0000000000      -111.9963032560       67.0887893813      -44.7363523659
atom        18.9183000000       20.0166000000       19.9889000000 N         0.0000000000         0.0000000000       249.3127431425      -22.5743659486       15.0582253046
energy      -651.1354332558
charge 0
end
begin
comment generated by PY
lattice        40.0000000000         0.0000000000         0.0000000000
lattice         0.0000000000        40.0000000000         0.0000000000
lattice         0.0000000000         0.0000000000        40.0000000000
atom        21.1237000000       19.8341000000       20.1106000000 H         0.0000000000         0.0000000000      -146.9133114146       32.1155818109      -21.4108823473
atom        20.0062000000       20.0264000000       19.9824000000 C         0.0000000000         0.0000000000       -84.5960039653      -47.0762178959       31.3844681116
atom        18.9195000000       19.9892000000       20.0072000000 N         0.0000000000         0.0000000000       231.5093153798       14.9607360850       -9.9736088249
energy      -651.6426442000
charge 0
end
begin
comment generated by PY
lattice        40.0000000000         0.0000000000         0.0000000000
lattice         0.0000000000        40.0000000000         0.0000000000
lattice         0.0000000000         0.0000000000        40.0000000000
atom        21.0924000000       20.1320000000       19.9120000000 H         0.0000000000         0.0000000000      -137.1720822840      -25.5036587391       17.0106894194
atom        20.0071000000       19.9777000000       20.0149000000 C         0.0000000000         0.0000000000       -94.6342061817       38.3323237236      -25.5798372919
atom        18.9210000000       20.0097000000       19.9935000000 N         0.0000000000         0.0000000000       231.8063115262      -12.8285880451        8.5691509330
energy      -658.0526409550
charge 0
end
begin
comment generated by PY
lattice        40.0000000000         0.0000000000         0.0000000000
lattice         0.0000000000        40.0000000000         0.0000000000
lattice         0.0000000000         0.0000000000        40.0000000000
atom        21.0977000000       19.9632000000       20.0245000000 H         0.0000000000         0.0000000000      -134.0849385645        6.7692619632       -4.5118644025
atom        20.0135000000       20.0052000000       19.9965000000 C         0.0000000000         0.0000000000      -135.1985929731      -10.0646936697        6.6995640215
atom        18.9151000000       19.9981000000       20.0012000000 N         0.0000000000         0.0000000000       269.2825315376        3.2954317065       -2.1876996190
energy      -658.0207135733
charge 0
end
begin
comment generated by PY
lattice        40.0000000000         0.0000000000         0.0000000000
lattice         0.0000000000        40.0000000000         0.0000000000
lattice         0.0000000000         0.0000000000        40.0000000000
atom        21.0694000000       19.9097000000       20.0602000000 H         0.0000000000         0.0000000000      -119.0585517347       16.2168384100      -10.8190309298
atom        20.0211000000       20.0151000000       19.9899000000 C         0.0000000000         0.0000000000      -184.6003746878      -26.1308136074       17.4597802796
atom        18.9106000000       19.9935000000       20.0044000000 N         0.0000000000         0.0000000000       303.6579264225        9.9139451974       -6.6407662893
energy      -657.9003429443
charge 0
end
begin
comment generated by PY
lattice        40.0000000000         0.0000000000         0.0000000000
lattice         0.0000000000        40.0000000000         0.0000000000
lattice         0.0000000000         0.0000000000        40.0000000000
atom        21.0947000000       20.1328000000       19.9114000000 H         0.0000000000         0.0000000000      -132.8123335752      -25.1132164128       16.7538537989
atom        20.0187000000       19.9772000000       20.0152000000 C         0.0000000000         0.0000000000      -162.0201890876       39.5812712015      -26.4107893708
atom        18.9108000000       20.0100000000       19.9933000000 N         0.0000000000         0.0000000000       294.8325226628      -14.4680547886        9.6569555719
energy      -653.4854435315
charge 0
end
begin
comment generated by PY
lattice        40.0000000000         0.0000000000         0.0000000000
lattice         0.0000000000        40.0000000000         0.0000000000
lattice         0.0000000000         0.0000000000        40.0000000000
atom        21.1283000000       19.8797000000       20.0802000000 H         0.0000000000         0.0000000000      -145.8424961979       23.1563914250      -15.4387208459
atom        20.0117000000       20.0192000000       19.9872000000 C         0.0000000000         0.0000000000      -117.5964386675      -34.6872861943       23.1349785447
atom        18.9145000000       19.9921000000       20.0053000000 N         0.0000000000         0.0000000000       263.4389348654       11.5308947694       -7.6962776988
energy      -651.4755019431
charge 0
end
begin
comment generated by PY
lattice        40.0000000000         0.0000000000         0.0000000000
lattice         0.0000000000        40.0000000000         0.0000000000
lattice         0.0000000000         0.0000000000        40.0000000000
atom        21.1696000000       20.0421000000       19.9719000000 H         0.0000000000         0.0000000000      -157.3477795170       -8.1906738711        5.4659441291
atom        20.0039000000       19.9934000000       20.0044000000 C         0.0000000000         0.0000000000       -69.5689259464       11.8712172332       -7.9205564082
atom        18.9182000000       20.0027000000       19.9982000000 N         0.0000000000         0.0000000000       226.9169054634       -3.6805433621        2.4546122792
energy      -649.0992072580
charge 0
end
begin
comment generated by PY
lattice        40.0000000000         0.0000000000         0.0000000000
lattice         0.0000000000        40.0000000000         0.0000000000
lattice         0.0000000000         0.0000000000        40.0000000000
atom        21.0781000000       19.8758000000       20.0828000000 H         0.0000000000         0.0000000000      -132.2721348967       23.5126568590      -15.6761884184
atom        20.0061000000       20.0198000000       19.9868000000 C         0.0000000000         0.0000000000       -90.9871420232      -34.9518809866       23.3016409195
atom        18.9229000000       19.9919000000       20.0054000000 N         0.0000000000         0.0000000000       223.2592538594       11.4392010671       -7.6253994405
energy      -660.9426645284
charge 0
end
begin
comment generated by PY
lattice        40.0000000000         0.0000000000         0.0000000000
lattice         0.0000000000        40.0000000000         0.0000000000
lattice         0.0000000000         0.0000000000        40.0000000000
atom        21.0935000000       20.0126000000       19.9916000000 H         0.0000000000         0.0000000000      -131.5894690008       -2.5147783724        1.6828846859
atom        20.0148000000       19.9972000000       20.0019000000 C         0.0000000000         0.0000000000      -144.0499480250        4.2158200173       -2.8272504594
atom        18.9143000000       20.0015000000       19.9990000000 N         0.0000000000         0.0000000000       275.6394170258       -1.7010416449        1.1443427129
energy      -658.3673294554
charge 0
end
begin
comment generated by PY
lattice        40.0000000000         0.0000000000         0.0000000000
lattice         0.0000000000        40.0000000000         0.0000000000
lattice         0.0000000000         0.0000000000        40.0000000000
atom        21.0892000000       20.1167000000       19.9222000000 H         0.0000000000         0.0000000000      -129.4107753994      -21.8759284396       14.5764347278
atom        20.0202000000       19.9797000000       20.0135000000 C         0.0000000000         0.0000000000      -172.2879767502       34.9605124592      -23.2679116645
atom        18.9099000000       20.0091000000       19.9940000000 N         0.0000000000         0.0000000000       301.6977521496      -13.0846840196        8.6914238762
energy      -654.3892584879
charge 0
end
begin
comment generated by PY
lattice        40.0000000000         0.0000000000         0.0000000000
lattice         0.0000000000        40.0000000000         0.0000000000
lattice         0.0000000000         0.0000000000        40.0000000000
atom        21.1153000000       19.7610000000       20.1593000000 H         0.0000000000         0.0000000000      -141.7022503766       45.3851315411      -30.2463320493
atom        20.0178000000       20.0386000000       19.9743000000 C         0.0000000000         0.0000000000      -149.3683382681      -69.1884710090       46.1135751541
atom        18.9101000000       19.9840000000       20.0107000000 N         0.0000000000         0.0000000000       291.0704886447       23.8034394679      -15.8672200442
energy      -643.7572263779
charge 0
end
begin
comment generated by PY
lattice        40.0000000000         0.0000000000         0.0000000000
lattice         0.0000000000        40.0000000000         0.0000000000
lattice         0.0000000000         0.0000000000        40.0000000000
atom        21.1144000000       20.1460000000       19.9027000000 H         0.0000000000         0.0000000000      -143.0866624858      -28.3771649682       18.9208411124
atom        20.0098000000       19.9753000000       20.0165000000 C         0.0000000000         0.0000000000      -107.6997747085       42.8367335566      -28.5867256119
atom        18.9171000000       20.0107000000       19.9928000000 N         0.0000000000         0.0000000000       250.7854602548      -14.4595916489        9.6659075600
energy      -653.0480729010
charge 0
end
begin
comment generated by PY
lattice        40.0000000000         0.0000000000         0.0000000000
lattice         0.0000000000        40.0000000000         0.0000000000
lattice         0.0000000000         0.0000000000        40.0000000000
atom        21.0823000000       19.8853000000       20.0765000000 H         0.0000000000         0.0000000000      -132.9121216257       21.7049176136      -14.4757389593
atom        20.0074000000       20.0183000000       19.9878000000 C         0.0000000000         0.0000000000       -98.8459214818      -32.4195875218       21.6194973103
atom        18.9215000000       19.9925000000       20.0050000000 N         0.0000000000         0.0000000000       231.7580431075       10.7146699083       -7.1437683510
energy      -660.3363617922
charge 0
end
begin
comment generated by PY
lattice        40.0000000000         0.0000000000         0.0000000000
lattice         0.0000000000        40.0000000000         0.0000000000
lattice         0.0000000000         0.0000000000        40.0000000000
atom        21.0817000000       20.0188000000       19.9875000000 H         0.0000000000         0.0000000000      -129.1696690291       -3.6711514343        2.4378165869