begin
comment generated by PY
lattice        40.0000000000         0.0000000000         0.0000000000
lattice         0.0000000000        40.0000000000         0.0000000000
lattice         0.0000000000         0.0000000000        40.0000000000
atom        18.3153700000       20.0436900000       19.9737500000 H         0.0000000000         0.0000000000        86.5309515089        1.3654650765        9.6969337892
atom        19.3064300000       20.0357200000       20.0927600000 C         0.0000000000         0.0000000000       340.7050794849        7.6317686438      -44.5090794698
atom        21.6990200000       19.9483600000       19.9207000000 O         0.0000000000         0.0000000000      -303.1055959109       31.0708043120       19.0378339667
atom        20.4858600000       20.0477400000       19.9902500000 N         0.0000000000         0.0000000000      -124.1459171070      -40.0233266902       15.7582693303
energy      -859.0852946777
charge 0
end
begin
comment generated by PY
lattice        40.0000000000         0.0000000000         0.0000000000
lattice         0.0000000000        40.0000000000         0.0000000000
lattice         0.0000000000         0.0000000000        40.0000000000
atom        18.3476800000       20.1794700000       19.9205300000 H         0.0000000000         0.0000000000        85.4165510575       -5.5892592920       21.9143023475
atom        19.3133600000       20.0919900000       20.1732600000 C         0.0000000000         0.0000000000       327.8673637601       -1.4193621908      -87.8766792394
atom        21.6956600000       19.8885900000       19.8723900000 O         0.0000000000         0.0000000000      -311.2426662706       49.9523161432       29.5580744383
atom        20.4814500000       20.0580700000       19.9802100000 N         0.0000000000         0.0000000000      -102.0507956139      -42.9482514672       36.4288849978
energy      -855.1768787318
charge 0
end
begin
comment generated by PY
lattice        40.0000000000         0.0000000000         0.0000000000
lattice         0.0000000000        40.0000000000         0.0000000000
lattice         0.0000000000         0.0000000000        40.0000000000
atom        18.4145600000       20.3814500000       19.9029500000 H         0.0000000000         0.0000000000        88.6237936875      -20.5887942962       32.0766367995
atom        19.3432700000       20.1609700000       20.2497900000 C         0.0000000000         0.0000000000       312.2882784719      -25.2300374078     -130.0963983723
atom        21.6555600000       19.8505000000       19.8305800000 O         0.0000000000         0.0000000000      -265.0292370202       41.3644395161       31.0268052740
atom        20.4968300000       20.0279900000       19.9635800000 N         0.0000000000         0.0000000000      -135.8696675663        4.4519085882       66.9579044787
energy      -864.7971727367
charge 0
end
begin
comment generated by PY
lattice        40.0000000000         0.0000000000         0.0000000000
lattice         0.0000000000        40.0000000000         0.0000000000
lattice         0.0000000000         0.0000000000        40.0000000000
atom        18.4476200000       20.5932100000       19.9741500000 H         0.0000000000         0.0000000000        89.1592836409      -36.8582388263       34.2762918390
atom        19.3492400000       20.2409900000       20.3196300000 C         0.0000000000         0.0000000000       302.0893607939      -53.2887117120     -161.0568995084
atom        21.6717400000       19.8044500000       19.7791300000 O         0.0000000000         0.0000000000      -314.5528857142       44.2482449775       46.3886169831
atom        20.4708700000       19.9968600000       19.9573900000 N         0.0000000000         0.0000000000       -76.6993406506       45.9212357163       80.3922370203
energy      -845.2990217253
charge 0
end
begin
comment generated by PY
lattice        40.0000000000         0.0000000000         0.0000000000
lattice         0.0000000000        40.0000000000         0.0000000000
lattice         0.0000000000         0.0000000000        40.0000000000
atom        18.4826700000       20.7239700000       20.1625600000 H         0.0000000000         0.0000000000        95.6508602115      -45.5862981610       20.1714865748
atom        19.4063600000       20.3075600000       20.3546100000 C         0.0000000000         0.0000000000       253.3578316927      -64.3705670850     -148.7138925400
atom        21.6297700000       19.7487900000       19.7289400000 O         0.0000000000         0.0000000000      -291.5383989649       53.3135096862       58.8004890911
atom        20.4673300000       19.9940200000       19.9712800000 N         0.0000000000         0.0000000000       -57.4690248220       56.6141147850       69.7666610549
energy      -863.3270070839
charge 0
end
begin
comment generated by PY
lattice        40.0000000000         0.0000000000         0.0000000000
lattice         0.0000000000        40.0000000000         0.0000000000
lattice         0.0000000000         0.0000000000        40.0000000000
atom        18.4619700000       20.7673100000       20.4043600000 H         0.0000000000         0.0000000000       106.0292719698      -43.9324822940       -4.1195224992
atom        19.4239500000       20.3698200000       20.3851600000 C         0.0000000000         0.0000000000       280.2824258387      -83.7521718544     -136.3179816485
atom        21.5954400000       19.6744300000       19.6746900000 O         0.0000000000         0.0000000000      -264.6828790546       81.3464474043       76.2565469037
atom        20.4929500000       20.0224900000       19.9897900000 N         0.0000000000         0.0000000000      -121.6442382898       46.3275066499       64.1607455985
energy      -858.2072146623
charge 0
end
begin
comment generated by PY
lattice        40.0000000000         0.0000000000         0.0000000000
lattice         0.0000000000        40.0000000000         0.0000000000
lattice         0.0000000000         0.0000000000        40.0000000000
atom        18.4879300000       20.7676700000       20.6368900000 H         0.0000000000         0.0000000000       105.0548050016      -35.7566876763      -25.0829961324
atom        19.4422900000       20.4264000000       20.4128300000 C         0.0000000000         0.0000000000       282.9259438790      -92.9150790056     -119.5892325131
atom        21.5746600000       19.5945300000       19.6189900000 O         0.0000000000         0.0000000000      -274.2646921174      125.4881671971      102.1588431975
atom        20.4991000000       20.0652300000       20.0131000000 N         0.0000000000         0.0000000000      -113.7181552732        3.1780112872       42.5102414556
energy      -848.0974210963
charge 0
end
begin
comment generated by PY
lattice        40.0000000000         0.0000000000         0.0000000000
lattice         0.0000000000        40.0000000000         0.0000000000
lattice         0.0000000000         0.0000000000        40.0000000000
atom        18.6311900000       20.7882100000       20.8526700000 H         0.0000000000         0.0000000000        93.3475465244      -30.7282452183      -44.4263018818
atom        19.5097000000       20.4776100000       20.4260200000 C         0.0000000000         0.0000000000       243.2341465646      -96.3885189278      -87.1110366272
atom        21.5004400000       19.5470400000       19.5828200000 O         0.0000000000         0.0000000000      -229.3769234749      132.8593367357      106.2310073262
atom        20.5158600000       20.0741000000       20.0277100000 N         0.0000000000         0.0000000000      -107.1894574102       -5.7518121115       25.3368327429
energy      -873.0602902785
charge 0
end
begin
comment generated by PY
lattice        40.0000000000         0.0000000000         0.0000000000
lattice         0.0000000000        40.0000000000         0.0000000000
lattice         0.0000000000         0.0000000000        40.0000000000
atom        18.7743500000       20.8969300000       21.1019300000 H         0.0000000000         0.0000000000        84.4338236768      -36.2084980654      -68.7394622992
atom        19.5279900000       20.5678600000       20.4629100000 C         0.0000000000         0.0000000000       279.9252184047     -152.0354260887      -89.2777486989
atom        21.4751900000       19.4963600000       19.5296000000 O         0.0000000000         0.0000000000      -237.6989272408      140.8317978008      126.6092212947
atom        20.5187900000       20.0468300000       20.0390800000 N         0.0000000000         0.0000000000      -126.6599454463       47.4330041199       31.3747210905
energy      -850.5848531472
charge 0
end
begin
comment generated by PY
lattice        40.0000000000         0.0000000000         0.0000000000
lattice         0.0000000000        40.0000000000         0.0000000000
lattice         0.0000000000         0.0000000000        40.0000000000
atom        19.0189600000       20.9971700000       21.2819500000 H         0.0000000000         0.0000000000        61.4603279196      -40.2149786631      -85.8910504768
atom        19.5858800000       20.6414700000       20.4844000000 C         0.0000000000         0.0000000000       256.8909139570     -183.9689655729      -67.1976053427
atom        21.4339600000       19.4668900000       19.4895900000 O         0.0000000000         0.0000000000      -240.0253178722      134.4807339156      142.3510086425
atom        20.4987800000       20.0102000000       20.0535000000 N         0.0000000000         0.0000000000       -78.3140708828       89.6883819623       10.7503898729
energy      -852.3900692763
charge 0
end
begin
comment generated by PY
lattice        40.0000000000         0.0000000000         0.0000000000
lattice         0.0000000000        40.0000000000         0.0000000000
lattice         0.0000000000         0.0000000000        40.0000000000
atom        19.2626700000       21.0572700000       21.3809100000 H         0.0000000000         0.0000000000        39.4871709497      -38.6606173983      -92.0618006752
atom        19.6679400000       20.6928000000       20.5050500000 C         0.0000000000         0.0000000000       216.6315672771     -188.4644769336      -43.5508264142
atom        21.3638900000       19.4372200000       19.4575300000 O         0.0000000000         0.0000000000      -216.4658129036      127.4209742481      148.7478916437
atom        20.4910500000       19.9957700000       20.0653600000 N         0.0000000000         0.0000000000       -39.6589441262       99.7176561997      -13.1484727327
energy      -868.6620851889
charge 0
end
begin
comment generated by PY
lattice        40.0000000000         0.0000000000         0.0000000000
lattice         0.0000000000        40.0000000000         0.0000000000
lattice         0.0000000000         0.0000000000        40.0000000000
atom        19.3540800000       21.1491800000       21.4791300000 H         0.0000000000         0.0000000000        38.5217272322      -44.1735053765      -98.8407540749
atom        19.7055600000       20.7646600000       20.5684800000 C         0.0000000000         0.0000000000       246.1988313088     -228.2237600810      -83.8543444238
atom        21.3121500000       19.3662200000       19.4044400000 O         0.0000000000         0.0000000000      -209.8358968989      162.1289745523      168.6953260450
atom        20.5113800000       20.0087000000       20.0646100000 N         0.0000000000         0.0000000000       -74.9008268734      110.2732791027       13.9917367443
energy      -841.2170360318
charge 0
end
begin
comment generated by PY
lattice        40.0000000000         0.0000000000         0.0000000000
lattice         0.0000000000        40.0000000000         0.0000000000
lattice         0.0000000000         0.0000000000        40.0000000000
atom        19.3805100000       21.2089900000       21.4611700000 H         0.0000000000         0.0000000000        46.0443995241      -47.5308697483      -92.5203292556
atom        19.7921300000       20.7736300000       20.6105600000 C         0.0000000000         0.0000000000       211.3654318884     -199.1489652880     -100.2072709300
atom        21.2218200000       19.3193700000       19.3836800000 O         0.0000000000         0.0000000000      -165.4147853724      180.6889562705      163.0420788438
atom        20.5384600000       20.0502700000       20.0535100000 N         0.0000000000         0.0000000000       -91.9959068253       65.9775652846       29.6698789582
energy      -861.9596117367
charge 0
end
begin
comment generated by PY
lattice        40.0000000000         0.0000000000         0.0000000000
lattice         0.0000000000        40.0000000000         0.0000000000
lattice         0.0000000000         0.0000000000        40.0000000000
atom        19.3956300000       21.3140100000       21.4154600000 H         0.0000000000         0.0000000000        52.8365132621      -53.9318485095      -79.7148290170
atom        19.8737900000       20.7942400000       20.6655500000 C         0.0000000000         0.0000000000       183.2858848127     -181.3162022905     -132.4365226008
atom        21.1437400000       19.2667100000       19.3535800000 O         0.0000000000         0.0000000000      -140.3039352065      210.0294600546      170.8312364557
atom        20.5565500000       20.0852800000       20.0439900000 N         0.0000000000         0.0000000000       -95.8196618039       25.2301514120       41.3462272474
energy      -863.2813610233
charge 0
end
begin
comment generated by PY
lattice        40.0000000000         0.0000000000         0.0000000000
lattice         0.0000000000        40.0000000000         0.0000000000
lattice         0.0000000000         0.0000000000        40.0000000000
atom        19.4642700000       21.4980000000       21.3710200000 H         0.0000000000         0.0000000000        56.6321890724      -71.9237011126      -71.1663816351
atom        19.9583000000       20.8399800000       20.7317800000 C         0.0000000000         0.0000000000       168.9287773454     -209.9465149945     -192.0103157635
atom        21.0775200000       19.2282900000       19.3197300000 O         0.0000000000         0.0000000000      -127.0814698670      217.2552736186      177.3287151815
atom        20.5548300000       20.0768000000       20.0290400000 N         0.0000000000         0.0000000000       -98.4845392659       64.5970399583       85.8344454625
energy      -847.6399124353
charge 0
end
begin
comment generated by PY
lattice        40.0000000000         0.0000000000         0.0000000000
lattice         0.0000000000        40.0000000000         0.0000000000
lattice         0.0000000000         0.0000000000        40.0000000000
atom        19.6319400000       21.6454000000       21.2537200000 H         0.0000000000         0.0000000000        47.6098806077      -86.2040936165      -54.7013200257
atom        20.0742700000       20.8524200000       20.7584200000 C         0.0000000000         0.0000000000       109.8465137852     -197.2972719939     -202.4231123478
atom        21.0079900000       19.2317200000       19.3108300000 O         0.0000000000         0.0000000000      -113.4241715996      188.6478536734      165.9896064625
atom        20.5228200000       20.0516800000       20.0247300000 N         0.0000000000         0.0000000000       -44.0424231003       94.8315656273       91.1186682247
energy      -867.8731189332
charge 0
end
begin
comment generated by PY
lattice        40.0000000000         0.0000000000         0.0000000000
lattice         0.0000000000        40.0000000000         0.0000000000
lattice         0.0000000000         0.0000000000        40.0000000000
atom        19.7881900000       21.7828700000       21.1352400000 H         0.0000000000         0.0000000000        39.1663702614      -96.1277689510      -34.6804809151
atom        20.1766400000       20.8842600000       20.8071200000 C         0.0000000000         0.0000000000        63.1985626261     -196.3401561731     -231.0438285610
atom        20.9546800000       19.1982200000       19.2730200000 O         0.0000000000         0.0000000000      -126.9938152163      215.7464757649      198.5569033945
atom        20.4847600000       20.0528300000       20.0346300000 N         0.0000000000         0.0000000000        24.6057503570       76.7436950302       67.2027505696
energy      -853.3346405500
charge 0
end
begin
comment generated by PY
lattice        40.0000000000         0.0000000000         0.0000000000
lattice         0.0000000000        40.0000000000         0.0000000000
lattice         0.0000000000         0.0000000000        40.0000000000
atom        19.9094100000       21.8465800000       21.0354000000 H         0.0000000000         0.0000000000        37.9813015979     -103.2872082858      -21.0242593863
atom        20.2815100000       20.8935500000       20.8428100000 C         0.0000000000         0.0000000000        31.1691923046     -192.8973254060     -264.7037792734
atom        20.8624800000       19.1850600000       19.2685600000 O         0.0000000000         0.0000000000       -97.5231745539      211.2734908982      187.4718395550
atom        20.4915000000       20.0553500000       20.0162300000 N         0.0000000000         0.0000000000        28.3353225635       84.8936471697       98.2722570039
energy      -854.2860737189
charge 0
end
begin
comment generated by PY
lattice        40.0000000000         0.0000000000         0.0000000000
lattice         0.0000000000        40.0000000000         0.0000000000
lattice         0.0000000000         0.0000000000        40.0000000000
atom        19.9916200000       21.8440300000       21.0327100000 H         0.0000000000         0.0000000000        40.9190769628     -102.3216800640      -18.5719350148
atom        20.3717000000       20.8902000000       20.8585900000 C         0.0000000000         0.0000000000        12.5248251668     -171.0430225193     -272.0204077889
atom        20.7563500000       19.1656500000       19.2705400000 O         0.0000000000         0.0000000000       -54.1449374945      219.6371363147      174.6129662796
atom        20.5295300000       20.0805800000       20.0006200000 N         0.0000000000         0.0000000000         0.7332240110       53.6901312414      116.0014297400
energy      -861.0075713829
charge 0
end
begin
comment generated by PY
lattice        40.0000000000         0.0000000000         0.0000000000
lattice         0.0000000000        40.0000000000         0.0000000000
lattice         0.0000000000         0.0000000000        40.0000000000
atom        20.1063800000       21.8477400000       21.1587200000 H         0.0000000000         0.0000000000        38.4243482771      -99.0727206831      -31.2864439485
atom        20.4499900000       20.9111900000       20.8694500000 C         0.0000000000         0.0000000000         6.8897157787     -174.1594225532     -267.7699661735
atom        20.6565600000       19.1246200000       19.2512000000 O         0.0000000000         0.0000000000       -17.3317276487      260.5757944476      195.0896848079
atom        20.5682200000       20.1092000000       20.0044100000 N         0.0000000000         0.0000000000       -28.0191110417       12.6786938210      103.9429498890
energy      -847.1945698369
charge 0
end
begin
comment generated by PY
lattice        40.0000000000         0.0000000000         0.0000000000
lattice         0.0000000000        40.0000000000         0.0000000000
lattice         0.0000000000         0.0000000000        40.0000000000
atom        20.3275300000       21.8165300000       21.3132300000 H         0.0000000000         0.0000000000        24.4047435256      -97.6186479239      -54.5953563497
atom        20.5381300000       20.9173400000       20.8361700000 C         0.0000000000         0.0000000000        -2.6580837812     -192.2753377722     -237.0988920948
atom        20.5642500000       19.1448400000       19.2671900000 O         0.0000000000         0.0000000000        11.4181216113      221.9140298723      169.3556828967
atom        20.5822900000       20.0830500000       20.0036500000 N         0.0000000000         0.0000000000       -33.1887904467       67.9941227581      122.3497654292
energy      -864.5678574758
charge 0
end
begin
comment generated by PY
lattice        40.0000000000         0.0000000000         0.0000000000
lattice         0.0000000000        40.0000000000         0.0000000000
lattice         0.0000000000         0.0000000000        40.0000000000
atom        20.6174400000       21.7944300000       21.4336200000 H         0.0000000000         0.0000000000         1.6048773219      -95.2676089920      -70.4865673462
atom        20.6338400000       20.9501100000       20.8167700000 C         0.0000000000         0.0000000000       -26.4952403920     -229.1906476623     -215.7137859522
atom        20.4923300000       19.1391700000       19.2500300000 O         0.0000000000         0.0000000000        18.2565824625      227.4190286287      192.5286496031
atom        20.5616800000       20.0629900000       20.0313100000 N         0.0000000000         0.0000000000         6.6087368525       97.0476841275       93.6655624704
energy      -855.2557963210
charge 0
end
begin
comment generated by PY
lattice        40.0000000000         0.0000000000         0.0000000000
lattice         0.0000000000        40.0000000000         0.0000000000
lattice         0.0000000000         0.0000000000        40.0000000000
atom        20.9108100000       21.7006500000       21.4907300000 H         0.0000000000         0.0000000000       -21.6937953489      -82.8169938529      -77.7365773366
atom        20.7289900000       20.9625200000       20.7812500000 C         0.0000000000         0.0000000000       -49.6274120941     -236.1541719470     -169.9491838670
atom        20.4238700000       19.1430200000       19.2408300000 O         0.0000000000         0.0000000000        23.6864163176      230.8357260801      213.8132205675
atom        20.5373300000       20.0546500000       20.0682100000 N         0.0000000000         0.0000000000        47.6137982689       88.1253769245       33.8466205801
energy      -855.2095513801
charge 0
end
begin
comment generated by PY
lattice        40.0000000000         0.0000000000         0.0000000000
lattice         0.0000000000        40.0000000000         0.0000000000
lattice         0.0000000000         0.0000000000        40.0000000000
atom        21.1466900000       21.5355800000       21.5448000000 H         0.0000000000         0.0000000000       -39.3040638244      -66.9776777531      -89.8396102966
atom        20.8150300000       20.9581400000       20.7375800000 C         0.0000000000         0.0000000000       -60.8155017821     -248.4937831022     -134.6494400508
atom        20.3429200000       19.1744200000       19.2673000000 O         0.0000000000         0.0000000000        38.4829756025      199.0310459071      191.8894532969
atom        20.5391800000       20.0343100000       20.0715600000 N         0.0000000000         0.0000000000        61.6105699481      116.4484326869       32.6262393154
energy      -866.5887987137
charge 0
end
begin
comment generated by PY
lattice        40.0000000000         0.0000000000         0.0000000000
lattice         0.0000000000        40.0000000000         0.0000000000
lattice         0.0000000000         0.0000000000        40.0000000000
atom        21.3086300000       21.3650000000       21.6334400000 H         0.0000000000         0.0000000000       -48.1243896866      -45.9120203434     -104.0049475139
atom        20.8977200000       20.9849000000       20.7292500000 C         0.0000000000         0.0000000000       -70.3132350862     -293.4274834101     -134.6299831665
atom        20.2404800000       19.1672200000       19.2723600000 O         0.0000000000         0.0000000000        82.8304691554      221.8939024505      203.1886947105
atom        20.5737400000       20.0317600000       20.0666000000 N         0.0000000000         0.0000000000        35.6318534642      117.4274293782       35.4662298908
energy      -843.5444963072
charge 0
end
begin
comment generated by PY
lattice        40.0000000000         0.0000000000         0.0000000000
lattice         0.0000000000        40.0000000000         0.0000000000
lattice         0.0000000000         0.0000000000        40.0000000000
atom        21.4022300000       21.2006400000       21.6212700000 H         0.0000000000         0.0000000000       -48.1050709146      -25.8671813422     -105.0541033848
atom        20.9645800000       20.9531600000       20.6958800000 C         0.0000000000         0.0000000000       -59.6715041159     -272.6836469386     -106.3272973386
atom        20.1440100000       19.1967300000       19.3135300000 O         0.0000000000         0.0000000000       124.3469708998      212.0912735933      182.4900692281
atom        20.6199400000       20.0370000000       20.0490400000 N         0.0000000000         0.0000000000       -16.5815157506       86.4845447766       28.8340033987
energy      -859.6565324400
charge 0
end
begin
comment generated by PY
lattice        40.0000000000         0.0000000000         0.0000000000
lattice         0.0000000000        40.0000000000         0.0000000000
lattice         0.0000000000         0.0000000000        40.0000000000
atom        21.5526600000       21.1905100000       21.5737500000 H         0.0000000000         0.0000000000       -54.8173744059      -30.5519876324     -103.6088467222
atom        21.0560200000       20.9215300000       20.6798800000 C         0.0000000000         0.0000000000       -79.5273415534     -268.0090879650     -120.2526095317
atom        20.0498800000       19.2266100000       19.3483400000 O         0.0000000000         0.0000000000       151.5898297218      197.8877057061      160.8214079607
atom        20.6383200000       20.0307200000       20.0263900000 N         0.0000000000         0.0000000000       -17.2701411836      100.6689039028       63.0625859935
energy      -858.3234657219
charge 0
end
begin
comment generated by PY
lattice        40.0000000000         0.0000000000         0.0000000000
lattice         0.0000000000        40.0000000000         0.0000000000
lattice         0.0000000000         0.0000000000        40.0000000000
atom        21.7660600000       21.2850700000       21.4571700000 H         0.0000000000         0.0000000000       -69.7249071055      -48.9526707168      -93.0891168281
atom        21.1654100000       20.8895800000       20.6702900000 C         0.0000000000         0.0000000000      -127.5926925051     -261.0226420553     -143.5158327084
atom        19.9703800000       19.2442600000       19.3588900000 O         0.0000000000         0.0000000000       167.6799278065      200.8303316596      167.4585927164
atom        20.6201000000       20.0312000000       20.0308800000 N         0.0000000000         0.0000000000        29.6370952903      109.1316212974       69.1623683853
energy      -844.0187371700
charge 0
end
begin
comment generated by PY
lattice        40.0000000000         0.0000000000         0.0000000000
lattice         0.0000000000        40.0000000000         0.0000000000
lattice         0.0000000000         0.0000000000        40.0000000000
atom        21.9284900000       21.3351900000       21.2288200000 H         0.0000000000         0.0000000000       -80.9949740597      -62.4447286384      -70.0325480582
atom        21.2437200000       20.8092800000       20.6244100000 C         0.0000000000         0.0000000000      -138.6481045932     -192.0017640957     -117.1566172983
atom        19.9277600000       19.2913500000       19.3876400000 O         0.0000000000         0.0000000000       155.5021096869      179.2862649317      162.4008146766
atom        20.5900200000       20.0427000000       20.0537000000 N         0.0000000000         0.0000000000        64.1517302712       75.1807439323       24.7611778094
energy      -868.8500089655
charge 0
end
begin
comment generated by PY
lattice        40.0000000000         0.0000000000         0.0000000000
lattice         0.0000000000        40.0000000000         0.0000000000
lattice         0.0000000000         0.0000000000        40.0000000000
atom        22.0843700000       21.3954000000       21.0350800000 H         0.0000000000         0.0000000000       -90.3359898333      -76.7630036637      -50.1145269672
atom        21.3469500000       20.7577300000       20.6064900000 C         0.0000000000         0.0000000000      -187.0751711381     -170.8983119935     -135.7536286172
atom        19.8530700000       19.3139400000       19.4026000000 O         0.0000000000         0.0000000000       176.6998410094      187.7224119999      173.7682169647
atom        20.5756700000       20.0568100000       20.0658100000 N         0.0000000000         0.0000000000       100.7100669346       59.8853796996       12.0849415056
energy      -852.0763092616
charge 0
end
begin
comment generated by PY
lattice        40.0000000000         0.0000000000         0.0000000000
lattice         0.0000000000        40.0000000000         0.0000000000
lattice         0.0000000000         0.0000000000        40.0000000000
atom        22.1517200000       21.4305200000       20.8765000000 H         0.0000000000         0.0000000000       -90.5289158914      -90.0348291438      -35.7022079953
atom        21.4277000000       20.6890500000       20.5874300000 C         0.0000000000         0.0000000000      -218.0796375850     -138.1933743398     -159.0464401197
atom        19.7828200000       19.3592600000       19.4527800000 O         0.0000000000         0.0000000000       194.0747343391      173.7948379351      148.8231002271
atom        20.5818800000       20.0614300000       20.0361500000 N         0.0000000000         0.0000000000       114.5096512572       54.4299377104       45.9085675667
energy      -850.2682741607