begin
comment generated by PY
lattice        40.0000000000         0.0000000000         0.0000000000
lattice         0.0000000000        40.0000000000         0.0000000000
lattice         0.0000000000         0.0000000000        40.0000000000
atom        14.2954000000        3.3575800000       15.5710000000 H         0.0000000000         0.0000000000        -5.8207410159       83.8564559120      -73.8580176766
atom        14.2381000000        4.1821000000       14.8448000000 C         0.0000000000         0.0000000000        -4.0468256242       58.6827677675      -51.6876701321
atom        13.8297000000        5.3813900000       15.2546000000 O         0.0000000000         0.0000000000        69.6577491265     -194.4026160350      -82.1379333158
atom        14.5789000000        3.9564500000       13.5776000000 O         0.0000000000         0.0000000000       -59.7901714863       51.8632123555      207.6838141850
energy      -656.9735634981
charge 0
end
begin
comment generated by PY
lattice        40.0000000000         0.0000000000         0.0000000000
lattice         0.0000000000        40.0000000000         0.0000000000
lattice         0.0000000000         0.0000000000        40.0000000000
atom        14.2931000000        3.4370800000       15.6334000000 H         0.0000000000         0.0000000000        -4.5911770019       67.8644041585      -86.9869218178
atom        14.2319000000        4.1911500000       14.8325000000 C         0.0000000000         0.0000000000         1.9017451393       70.2106963374      -38.7990511304
atom        13.8329000000        5.3716200000       15.2595000000 O         0.0000000000         0.0000000000        63.4460696967     -182.9133707898      -81.7172116741
atom        14.5806000000        3.9544600000       13.5780000000 O         0.0000000000         0.0000000000       -60.7565738947       44.8382472334      207.5036146222
energy      -660.5188927050
charge 0
end
begin
comment generated by PY
lattice        40.0000000000         0.0000000000         0.0000000000
lattice         0.0000000000        40.0000000000         0.0000000000
lattice         0.0000000000         0.0000000000        40.0000000000
atom        14.3589000000        3.2553900000       15.5050000000 H         0.0000000000         0.0000000000       -18.9295380712      106.4110754643      -60.3975361528
atom        14.2316000000        4.1824400000       14.8524000000 C         0.0000000000         0.0000000000        10.6529455787       49.2696094362      -69.8072394921
atom        13.8243000000        5.3955100000       15.2605000000 O         0.0000000000         0.0000000000        71.5986484833     -211.2938742402      -78.4965213029
atom        14.5852000000        3.9484600000       13.5701000000 O         0.0000000000         0.0000000000       -63.3220559907       55.6136193397      208.7015969479
energy      -644.2179711830
charge 0
end
begin
comment generated by PY
lattice        40.0000000000         0.0000000000         0.0000000000
lattice         0.0000000000        40.0000000000         0.0000000000
lattice         0.0000000000         0.0000000000        40.0000000000
atom        14.2550000000        3.3944300000       15.6013000000 H         0.0000000000         0.0000000000         1.7180257213       76.8334682243      -81.3999490596
atom        14.2407000000        4.1922500000       14.8349000000 C         0.0000000000         0.0000000000       -13.3767258432       59.2051580929      -43.1017328383
atom        13.8301000000        5.3711900000       15.2552000000 O         0.0000000000         0.0000000000        68.1178197512     -183.1849466925      -79.7220022400
atom        14.5790000000        3.9567300000       13.5826000000 O         0.0000000000         0.0000000000       -56.4590396293       47.1458203753      204.2240341379
energy      -661.5292900240
charge 0
end
begin
comment generated by PY
lattice        40.0000000000         0.0000000000         0.0000000000
lattice         0.0000000000        40.0000000000         0.0000000000
lattice         0.0000000000         0.0000000000        40.0000000000
atom        14.2559000000        3.3354100000       15.5128000000 H         0.0000000000         0.0000000000         0.4243735900       87.8927407177      -62.1842796171
atom        14.2454000000        4.1948000000       14.8395000000 C         0.0000000000         0.0000000000       -19.4302221682       58.0097376381      -67.3895530572
atom        13.8189000000        5.3901200000       15.2715000000 O         0.0000000000         0.0000000000        76.1650086946     -200.7940647238      -81.1145523405
atom        14.5867000000        3.9395700000       13.5683000000 O         0.0000000000         0.0000000000       -57.1591801164       54.8918994286      210.6880150147
energy      -652.7155568190
charge 0
end
begin
comment generated by PY
lattice        40.0000000000         0.0000000000         0.0000000000
lattice         0.0000000000        40.0000000000         0.0000000000
lattice         0.0000000000         0.0000000000        40.0000000000
atom        14.2531000000        3.3603700000       15.6611000000 H         0.0000000000         0.0000000000         2.3585990138       84.7300160787      -94.3631374432
atom        14.2427000000        4.1851600000       14.8364000000 C         0.0000000000         0.0000000000       -14.6395672788       57.2488504202      -34.3983909645
atom        13.8266000000        5.3731400000       15.2501000000 O         0.0000000000         0.0000000000        69.6890911841     -186.6469973532      -79.7132556208
atom        14.5812000000        3.9622300000       13.5828000000 O         0.0000000000         0.0000000000       -57.4081529191       44.6678308543      208.4750840285
energy      -652.9934007803
charge 0
end
begin
comment generated by PY
lattice        40.0000000000         0.0000000000         0.0000000000
lattice         0.0000000000        40.0000000000         0.0000000000
lattice         0.0000000000         0.0000000000        40.0000000000
atom        14.3131000000        3.4151000000       15.5489000000 H         0.0000000000         0.0000000000        -7.8925725655       65.6204797912      -63.4079787138
atom        14.2343000000        4.1865700000       14.8369000000 C         0.0000000000         0.0000000000         2.2962984797       74.8625953547      -58.9789831567
atom        13.8234000000        5.3803800000       15.2616000000 O         0.0000000000         0.0000000000        68.0155219871     -191.7858027203      -83.4405180254
atom        14.5869000000        3.9505100000       13.5779000000 O         0.0000000000         0.0000000000       -62.4192679014       51.3024075744      205.8274029564
energy      -661.7795130125
charge 0
end
begin
comment generated by PY
lattice        40.0000000000         0.0000000000         0.0000000000
lattice         0.0000000000        40.0000000000         0.0000000000
lattice         0.0000000000         0.0000000000        40.0000000000
atom        14.3540000000        3.2814000000       15.5796000000 H         0.0000000000         0.0000000000       -17.4101642625      101.6406719083      -76.7342593655
atom        14.2299000000        4.1809900000       14.8477000000 C         0.0000000000         0.0000000000        12.3369267574       53.8051182749      -55.1189983105
atom        13.8204000000        5.3924100000       15.2605000000 O         0.0000000000         0.0000000000        70.7541014951     -207.6865866162      -81.0449279729
atom        14.5907000000        3.9510200000       13.5690000000 O         0.0000000000         0.0000000000       -65.6808239900       52.2410964330      212.8979856489
energy      -641.9950261597
charge 0
end
begin
comment generated by PY
lattice        40.0000000000         0.0000000000         0.0000000000
lattice         0.0000000000        40.0000000000         0.0000000000
lattice         0.0000000000         0.0000000000        40.0000000000
atom        14.2467000000        3.5012500000       15.5925000000 H         0.0000000000         0.0000000000         4.4363151780       40.4779573198      -66.0147280470
atom        14.2368000000        4.1928300000       14.8333000000 C         0.0000000000         0.0000000000       -10.7750170727       87.6707748669      -56.5816013418
atom        13.8276000000        5.3637500000       15.2573000000 O         0.0000000000         0.0000000000        64.9809664576     -173.0734052526      -82.1855444356
atom        14.5851000000        3.9570600000       13.5822000000 O         0.0000000000         0.0000000000       -58.6422045630       44.9254230659      204.7817738244
energy      -669.2900234393
charge 0
end
begin
comment generated by PY
lattice        40.0000000000         0.0000000000         0.0000000000
lattice         0.0000000000        40.0000000000         0.0000000000
lattice         0.0000000000         0.0000000000        40.0000000000
atom        14.2982000000        3.2495400000       15.5072000000 H         0.0000000000         0.0000000000        -7.2492114958      107.8573988613      -62.9770681928
atom        14.2430000000        4.1966400000       14.8437000000 C         0.0000000000         0.0000000000       -11.2581022915       44.2159978410      -68.2315226093
atom        13.8183000000        5.3895600000       15.2651000000 O         0.0000000000         0.0000000000        76.0082756286     -206.1591322435      -76.4923951328
atom        14.5865000000        3.9441200000       13.5719000000 O         0.0000000000         0.0000000000       -57.5010418414       54.0853355412      207.7010859349
energy      -645.8876287161
charge 0
end
begin
comment generated by PY
lattice        40.0000000000         0.0000000000         0.0000000000
lattice         0.0000000000        40.0000000000         0.0000000000
lattice         0.0000000000         0.0000000000        40.0000000000
atom        14.2453000000        3.4315800000       15.6231000000 H         0.0000000000         0.0000000000         5.8181434625       60.4191791234      -78.9727028468
atom        14.2469000000        4.1670400000       14.8560000000 C         0.0000000000         0.0000000000       -20.2914996214       85.6143036482      -55.4842022609
atom        13.8221000000        5.3837100000       15.2555000000 O         0.0000000000         0.0000000000        74.7629042696     -194.9417904369      -87.8473529647
atom        14.5830000000        3.9608100000       13.5651000000 O         0.0000000000         0.0000000000       -60.2896071107       48.9078296654      222.3039580724
energy      -652.9519332391
charge 0
end
begin
comment generated by PY
lattice        40.0000000000         0.0000000000         0.0000000000
lattice         0.0000000000        40.0000000000         0.0000000000
lattice         0.0000000000         0.0000000000        40.0000000000
atom        14.3460000000        3.2953500000       15.4720000000 H         0.0000000000         0.0000000000       -15.9617450281       97.1773622983      -54.3045257898
atom        14.2336000000        4.1949000000       14.8372000000 C         0.0000000000         0.0000000000         5.6232538696       56.3204498652      -71.7024905887
atom        13.8188000000        5.3940900000       15.2729000000 O         0.0000000000         0.0000000000        72.2642013494     -208.4197133569      -79.0369198669
atom        14.5900000000        3.9380400000       13.5712000000 O         0.0000000000         0.0000000000       -61.9258332515       54.9216911934      205.0440362454
energy      -650.2899820647
charge 0
end
begin
comment generated by PY
lattice        40.0000000000         0.0000000000         0.0000000000
lattice         0.0000000000        40.0000000000         0.0000000000
lattice         0.0000000000         0.0000000000        40.0000000000
atom        14.2953000000        3.3829600000       15.6779000000 H         0.0000000000         0.0000000000        -5.9291240664       80.0474956658      -97.6525701750
atom        14.2308000000        4.1840400000       14.8328000000 C         0.0000000000         0.0000000000         3.6495938826       62.4333721521      -28.2853029695
atom        13.8330000000        5.3696600000       15.2508000000 O         0.0000000000         0.0000000000        63.3763102527     -184.5172697293      -80.2153986244
atom        14.5810000000        3.9651400000       13.5837000000 O         0.0000000000         0.0000000000       -61.0967410689       42.0362249719      206.1529487083
energy      -654.6085958051
charge 0
end
begin
comment generated by PY
lattice        40.0000000000         0.0000000000         0.0000000000
lattice         0.0000000000        40.0000000000         0.0000000000
lattice         0.0000000000         0.0000000000        40.0000000000
atom        14.3085000000        3.3677000000       15.5077000000 H         0.0000000000         0.0000000000        -8.4687474585       74.2153937145      -54.2849834049
atom        14.2354000000        4.1816300000       14.8453000000 C         0.0000000000         0.0000000000        -0.4042171845       69.4791370437      -69.0643671196
atom        13.8254000000        5.3848500000       15.2608000000 O         0.0000000000         0.0000000000        70.5627096751     -198.5392031248      -83.0346483393
atom        14.5843000000        3.9527100000       13.5750000000 O         0.0000000000         0.0000000000       -61.6897850320       54.8446493060      206.3834688638
energy      -659.1331665420
charge 0
end
begin
comment generated by PY
lattice        40.0000000000         0.0000000000         0.0000000000
lattice         0.0000000000        40.0000000000         0.0000000000
lattice         0.0000000000         0.0000000000        40.0000000000
atom        14.2656000000        3.3274400000       15.6104000000 H         0.0000000000         0.0000000000        -0.0359974305       92.0453750787      -83.9792397110
atom        14.2439000000        4.1838000000       14.8472000000 C         0.0000000000         0.0000000000       -15.0868706297       54.0829017285      -48.1094432540
atom        13.8237000000        5.3817200000       15.2574000000 O         0.0000000000         0.0000000000        73.7137475525     -196.5753583471      -81.8883812738
atom        14.5824000000        3.9567300000       13.5705000000 O         0.0000000000         0.0000000000       -58.5908825529       50.4472046004      213.9775411783
energy      -648.7480156003
charge 0
end
begin
comment generated by PY
lattice        40.0000000000         0.0000000000         0.0000000000
lattice         0.0000000000        40.0000000000         0.0000000000
lattice         0.0000000000         0.0000000000        40.0000000000
atom        14.2707000000        3.3675200000       15.5712000000 H         0.0000000000         0.0000000000        -0.9085272561       81.0204901833      -73.6608661142
atom        14.2424000000        4.1846100000       14.8451000000 C         0.0000000000         0.0000000000       -12.8908661485       62.8726652068      -55.6099712464
atom        13.8227000000        5.3834000000       15.2627000000 O         0.0000000000         0.0000000000        73.2514503929     -196.0855074667      -83.6286367560
atom        14.5842000000        3.9519400000       13.5693000000 O         0.0000000000         0.0000000000       -59.4520069883       52.1919490161      212.8999101771
energy      -654.0394427873
charge 0
end
begin
comment generated by PY
lattice        40.0000000000         0.0000000000         0.0000000000
lattice         0.0000000000        40.0000000000         0.0000000000
lattice         0.0000000000         0.0000000000        40.0000000000
atom        14.3082000000        3.3911000000       15.5196000000 H         0.0000000000         0.0000000000        -8.3999822414       70.7815126998      -58.4347228334
atom        14.2328000000        4.1897800000       14.8341000000 C         0.0000000000         0.0000000000         2.1666537375       67.4340106822      -59.4939547848
atom        13.8284000000        5.3758900000       15.2594000000 O         0.0000000000         0.0000000000        66.5258730918     -189.3964676121      -80.7861637830
atom        14.5833000000        3.9540900000       13.5841000000 O         0.0000000000         0.0000000000       -60.2926045878       51.1812242301      198.7144714012
energy      -665.3812221151
charge 0
end
begin
comment generated by PY
lattice        40.0000000000         0.0000000000         0.0000000000
lattice         0.0000000000        40.0000000000         0.0000000000
lattice         0.0000000000         0.0000000000        40.0000000000
atom        14.3461000000        3.3208800000       15.6366000000 H         0.0000000000         0.0000000000       -15.2737221423       92.8289353492      -88.7039091351
atom        14.2255000000        4.1958200000       14.8223000000 C         0.0000000000         0.0000000000        14.7838100144       62.1454779012      -42.6698219278
atom        13.8260000000        5.3851600000       15.2732000000 O         0.0000000000         0.0000000000        65.4343695981     -200.1161336218      -80.2853960699
atom        14.5889000000        3.9446700000       13.5718000000 O         0.0000000000         0.0000000000       -64.9444674702       45.1417973109      211.6595271328
energy      -644.3407473378
charge 0
end
begin
comment generated by PY
lattice        40.0000000000         0.0000000000         0.0000000000
lattice         0.0000000000        40.0000000000         0.0000000000
lattice         0.0000000000         0.0000000000        40.0000000000
atom        14.2808000000        3.4293800000       15.5829000000 H         0.0000000000         0.0000000000        -1.7952111245       56.1897666679      -66.2932298722
atom        14.2373000000        4.1664900000       14.8528000000 C         0.0000000000         0.0000000000        -5.7751673004       91.5022432271      -64.8192677503
atom        13.8268000000        5.3880500000       15.2614000000 O         0.0000000000         0.0000000000        71.1210907543     -198.5770786179      -88.7865273560
atom        14.5833000000        3.9570300000       13.5641000000 O         0.0000000000         0.0000000000       -63.5506873294       50.8849687228      219.8983249785
energy      -654.5973794009
charge 0
end
begin
comment generated by PY
lattice        40.0000000000         0.0000000000         0.0000000000
lattice         0.0000000000        40.0000000000         0.0000000000
lattice         0.0000000000         0.0000000000        40.0000000000
atom        14.2950000000        3.3047600000       15.4754000000 H         0.0000000000         0.0000000000        -6.9778754884       92.6851519578      -53.1997602918
atom        14.2410000000        4.1884600000       14.8445000000 C         0.0000000000         0.0000000000        -9.2005203537       58.1822204070      -75.3807661916
atom        13.8207000000        5.3951100000       15.2737000000 O         0.0000000000         0.0000000000        75.4401713687     -207.6744964487      -81.5131150391
atom        14.5857000000        3.9412600000       13.5647000000 O         0.0000000000         0.0000000000       -59.2616955266       56.8073010234      210.0939615225
energy      -649.6805871260
charge 0
end
begin
comment generated by PY
lattice        40.0000000000         0.0000000000         0.0000000000
lattice         0.0000000000        40.0000000000         0.0000000000
lattice         0.0000000000         0.0000000000        40.0000000000
atom        14.2230000000        3.3642000000       15.6936000000 H         0.0000000000         0.0000000000         8.8343907860       82.7600848863      -99.7384639847
atom        14.2483000000        4.1761100000       14.8533000000 C         0.0000000000         0.0000000000       -26.1351385238       65.9941877888      -38.8736932164
atom        13.8247000000        5.3809300000       15.2568000000 O         0.0000000000         0.0000000000        75.3066556273     -195.2459856012      -84.8264638957
atom        14.5808000000        3.9609900000       13.5613000000 O         0.0000000000         0.0000000000       -58.0058748290       46.4915898655      223.4384210968
energy      -641.9419110517
charge 0
end
begin
comment generated by PY
lattice        40.0000000000         0.0000000000         0.0000000000
lattice         0.0000000000        40.0000000000         0.0000000000
lattice         0.0000000000         0.0000000000        40.0000000000
atom        14.3239000000        3.4095300000       15.4765000000 H         0.0000000000         0.0000000000        -8.4377604425       49.5132174611      -33.3833777378
atom        14.2353000000        4.1814600000       14.8485000000 C         0.0000000000         0.0000000000         0.3253759915       95.0689776958      -90.3870999815
atom        13.8240000000        5.3892300000       15.2680000000 O         0.0000000000         0.0000000000        71.1207852769     -201.6930941827      -85.3790448371
atom        14.5848000000        3.9458500000       13.5674000000 O         0.0000000000         0.0000000000       -63.0083608259       57.1103990258      209.1494456169
energy      -659.1610325761
charge 0
end
begin
comment generated by PY
lattice        40.0000000000         0.0000000000         0.0000000000
lattice         0.0000000000        40.0000000000         0.0000000000
lattice         0.0000000000         0.0000000000        40.0000000000
atom        14.3417000000        3.3021800000       15.6355000000 H         0.0000000000         0.0000000000       -14.2279651574       95.8226454831      -87.7157415805
atom        14.2297000000        4.1902000000       14.8312000000 C         0.0000000000         0.0000000000        10.8248416367       55.0804203082      -41.0221454545
atom        13.8304000000        5.3799100000       15.2593000000 O         0.0000000000         0.0000000000        65.4814621348     -196.4010896086      -78.3413911732
atom        14.5816000000        3.9553100000       13.5791000000 O         0.0000000000         0.0000000000       -62.0783186142       45.4976007568      207.0796012687
energy      -647.0565713675
charge 0
end
begin
comment generated by PY
lattice        40.0000000000         0.0000000000         0.0000000000
lattice         0.0000000000        40.0000000000         0.0000000000
lattice         0.0000000000         0.0000000000        40.0000000000
atom        14.2641000000        3.4369700000       15.5822000000 H         0.0000000000         0.0000000000         1.0395426481       53.8928346351      -66.1150012124
atom        14.2393000000        4.1683100000       14.8490000000 C         0.0000000000         0.0000000000       -10.0857075276       90.4522730538      -63.1030148407
atom        13.8273000000        5.3851600000       15.2597000000 O         0.0000000000         0.0000000000        71.0885394023     -194.7194732820      -88.3593180954
atom        14.5823000000        3.9580700000       13.5687000000 O         0.0000000000         0.0000000000       -62.0424045229       50.3744886536      217.5776341485
energy      -657.3111747923
charge 0
end
begin
comment generated by PY
lattice        40.0000000000         0.0000000000         0.0000000000
lattice         0.0000000000        40.0000000000         0.0000000000
lattice         0.0000000000         0.0000000000        40.0000000000
atom        14.2850000000        3.2652300000       15.4920000000 H         0.0000000000         0.0000000000        -4.7774340857      104.7368687739      -61.2709664277
atom        14.2452000000        4.2070900000       14.8319000000 C         0.0000000000         0.0000000000       -15.8237970715       43.9835347308      -65.9916190196
atom        13.8230000000        5.3828900000       15.2675000000 O         0.0000000000         0.0000000000        74.1333723948     -200.0893860734      -73.7676199824
atom        14.5809000000        3.9419600000       13.5793000000 O         0.0000000000         0.0000000000       -53.5320712376       51.3686156292      201.0305054297
energy      -653.0021862422
charge 0
end
begin
comment generated by PY
lattice        40.0000000000         0.0000000000         0.0000000000
lattice         0.0000000000        40.0000000000         0.0000000000
lattice         0.0000000000         0.0000000000        40.0000000000
atom        14.2587000000        3.3860500000       15.6697000000 H         0.0000000000         0.0000000000         2.2922257777       80.1357907478      -95.5753371328
atom        14.2428000000        4.1949500000       14.8339000000 C         0.0000000000         0.0000000000       -13.7441760261       55.0644504996      -31.8034798923
atom        13.8318000000        5.3619900000       15.2496000000 O         0.0000000000         0.0000000000        66.2554992651     -177.2418467042      -76.7001527629
atom        14.5756000000        3.9644200000       13.5846000000 O         0.0000000000         0.0000000000       -54.8034559562       42.0417285173      204.0790928484
energy      -658.0948337955
charge 0
end
begin
comment generated by PY
lattice        40.0000000000         0.0000000000         0.0000000000
lattice         0.0000000000        40.0000000000         0.0000000000
lattice         0.0000000000         0.0000000000        40.0000000000
atom        14.3624000000        3.3814600000       15.4403000000 H         0.0000000000         0.0000000000       -15.8685239806       62.2403301302      -32.3922152532
atom        14.2289000000        4.1914200000       14.8399000000 C         0.0000000000         0.0000000000        10.9202515572       86.6366720538      -88.6261838503
atom        13.8216000000        5.3917300000       15.2753000000 O         0.0000000000         0.0000000000        69.4122439328     -205.6743785805      -82.4150667860
atom        14.5897000000        3.9376200000       13.5688000000 O         0.0000000000         0.0000000000       -64.4639715094       56.7972763965      203.4336658895
energy      -658.0067406739
charge 0
end
begin
comment generated by PY
lattice        40.0000000000         0.0000000000         0.0000000000
lattice         0.0000000000        40.0000000000         0.0000000000
lattice         0.0000000000         0.0000000000        40.0000000000
atom        14.3147000000        3.3068400000       15.6188000000 H         0.0000000000         0.0000000000        -9.8309206417       95.6549050486      -85.4741691720
atom        14.2347000000        4.1762800000       14.8459000000 C         0.0000000000         0.0000000000         2.7982574245       53.2268511468      -43.4310339926
atom        13.8301000000        5.3819000000       15.2514000000 O         0.0000000000         0.0000000000        68.8334693953     -198.0120961359      -81.4899855404
atom        14.5798000000        3.9634900000       13.5771000000 O         0.0000000000         0.0000000000       -61.8008561782       49.1301168800      210.3953887050
energy      -648.4558845189
charge 0
end
begin
comment generated by PY
lattice        40.0000000000         0.0000000000         0.0000000000
lattice         0.0000000000        40.0000000000         0.0000000000
lattice         0.0000000000         0.0000000000        40.0000000000
atom        14.2424000000        3.4372900000       15.5650000000 H         0.0000000000         0.0000000000         4.3281401397       59.3150686831      -67.1715306221
atom        14.2430000000        4.1897500000       14.8329000000 C         0.0000000000         0.0000000000       -17.3657057817       76.7364355360      -57.4349176522
atom        13.8265000000        5.3756700000       15.2650000000 O         0.0000000000         0.0000000000        70.1234899254     -184.9212290501      -83.3423252749
atom        14.5818000000        3.9514400000       13.5764000000 O         0.0000000000         0.0000000000       -57.0858752834       48.8694948310      207.9484735492
energy      -663.4628955043
charge 0
end
begin
comment generated by PY
lattice        40.0000000000         0.0000000000         0.0000000000
lattice         0.0000000000        40.0000000000         0.0000000000
lattice         0.0000000000         0.0000000000        40.0000000000
atom        14.2880000000        3.2645700000       15.5005000000 H         0.0000000000         0.0000000000        -5.3558465526      103.9061034092      -59.9699946620
atom        14.2453000000        4.1841500000       14.8528000000 C         0.0000000000         0.0000000000       -13.9314429729       47.9275702485      -72.3629202410
atom        13.8208000000        5.3944200000       15.2642000000 O         0.0000000000         0.0000000000        77.1942754229     -208.5132376890      -79.6272346691
atom        14.5828000000        3.9477000000       13.5664000000 O         0.0000000000         0.0000000000       -57.9069728368       56.6791040313      211.9603495720
energy      -645.3470554381
charge 0
end
begin
comment generated by PY
lattice        40.0000000000         0.0000000000         0.0000000000
lattice         0.0000000000        40.0000000000         0.0000000000
lattice         0.0000000000         0.0000000000        40.0000000000
atom        14.3057000000        3.3824800000       15.6312000000 H         0.0000000000         0.0000000000        -7.2783242341       82.7334496655      -88.6782338578
atom        14.2324000000        4.2042800000       14.8239000000 C         0.0000000000         0.0000000000         2.3769488455       60.4420585393      -40.7508614108
atom        13.8304000000        5.3729300000       15.2676000000 O         0.0000000000         0.0000000000        64.5066022243     -187.2781614343      -77.7007686982
atom        14.5818000000        3.9467000000       13.5766000000 O         0.0000000000         0.0000000000       -59.6052796357       44.1022532295      207.1294639668
energy      -655.8592795692