begin
comment generated by PY
lattice        40.0000000000         0.0000000000         0.0000000000
lattice         0.0000000000        40.0000000000         0.0000000000
lattice         0.0000000000         0.0000000000        40.0000000000
atom        18.8571000000       19.8774000000       20.0129000000 H         0.0000000000         0.0000000000       160.6736243935       58.8057284372       -6.1832356139
atom        21.0588000000       19.8932000000       20.0112000000 C         0.0000000000         0.0000000000      -241.1609276209       85.9353916703       -9.0263651564
atom        19.9902000000       20.2378000000       19.9750000000 N         0.0000000000         0.0000000000        80.4875032274     -144.7402201075       15.2095207703
energy      -611.5123938900
charge 0
end
begin
comment generated by PY
lattice        40.0000000000         0.0000000000         0.0000000000
lattice         0.0000000000        40.0000000000         0.0000000000
lattice         0.0000000000         0.0000000000        40.0000000000
atom        18.9752000000       19.8599000000       20.0147000000 H         0.0000000000         0.0000000000       122.3505164586       56.9774747952       -5.9855110933
atom        21.0535000000       19.8904000000       20.0115000000 C         0.0000000000         0.0000000000      -241.8390394543       89.8126107417       -9.4388601356
atom        19.9864000000       20.2415000000       19.9746000000 N         0.0000000000         0.0000000000       119.4887229956     -146.7893855369       15.4242912289
energy      -627.6181569382
charge 0
end
begin
comment generated by PY
lattice        40.0000000000         0.0000000000         0.0000000000
lattice         0.0000000000        40.0000000000         0.0000000000
lattice         0.0000000000         0.0000000000        40.0000000000
atom        19.0642000000       19.7681000000       20.0244000000 H         0.0000000000         0.0000000000        89.7979387154       62.4281597397       -6.5718938316
atom        21.0486000000       19.8796000000       20.0127000000 C         0.0000000000         0.0000000000      -244.8940622788       99.5940051654      -10.4945456753
atom        19.9842000000       20.2573000000       19.9729000000 N         0.0000000000         0.0000000000       155.0967005029     -162.0225649051       17.0664295069
energy      -628.8358005254
charge 0
end
begin
comment generated by PY
lattice        40.0000000000         0.0000000000         0.0000000000
lattice         0.0000000000        40.0000000000         0.0000000000
lattice         0.0000000000         0.0000000000        40.0000000000
atom        19.0159000000       19.5740000000       20.0448000000 H         0.0000000000         0.0000000000       130.0947944242      105.6676297957      -11.1128690585
atom        21.0402000000       19.8711000000       20.0136000000 C         0.0000000000         0.0000000000      -212.6679860317       94.1599211506       -9.9142267286
atom        19.9948000000       20.2785000000       19.9707000000 N         0.0000000000         0.0000000000        82.5736916075     -199.8273509462       21.0271757871
energy      -604.4591284820
charge 0
end
begin
comment generated by PY
lattice        40.0000000000         0.0000000000         0.0000000000
lattice         0.0000000000        40.0000000000         0.0000000000
lattice         0.0000000000         0.0000000000        40.0000000000
atom        18.7961000000       19.7733000000       20.0239000000 H         0.0000000000         0.0000000000       162.9346905149       71.8632477377       -7.5627803965
atom        21.0513000000       19.8896000000       20.0116000000 C         0.0000000000         0.0000000000      -201.5429875202       77.5845329180       -8.1554013870
atom        20.0010000000       20.2483000000       19.9739000000 N         0.0000000000         0.0000000000        38.6087970053     -149.4477806557       15.7182117836
energy      -595.0286883151
charge 0
end
begin
comment generated by PY
lattice        40.0000000000         0.0000000000         0.0000000000
lattice         0.0000000000        40.0000000000         0.0000000000
lattice         0.0000000000         0.0000000000        40.0000000000
atom        18.8573000000       19.8345000000       20.0174000000 H         0.0000000000         0.0000000000       160.3248793922       65.7383323866       -6.9108124934
atom        21.0566000000       19.8912000000       20.0114000000 C         0.0000000000         0.0000000000      -233.6284308473       85.7323982894       -9.0049804711
atom        19.9921000000       20.2425000000       19.9745000000 N         0.0000000000         0.0000000000        73.3040514551     -151.4714306759       15.9157729645
energy      -608.6352914604
charge 0
end
begin
comment generated by PY
lattice        40.0000000000         0.0000000000         0.0000000000
lattice         0.0000000000        40.0000000000         0.0000000000
lattice         0.0000000000         0.0000000000        40.0000000000
atom        19.0344000000       19.6881000000       20.0328000000 H         0.0000000000         0.0000000000       118.6210170533       85.4375458598       -8.9927709876
atom        21.0482000000       19.8754000000       20.0131000000 C         0.0000000000         0.0000000000      -241.9372567839      101.1727085400      -10.6553775671
atom        19.9867000000       20.2666000000       19.9719000000 N         0.0000000000         0.0000000000       123.3161397307     -186.6109543998       19.6482085547
energy      -618.0326251515
charge 0
end
begin
comment generated by PY
lattice        40.0000000000         0.0000000000         0.0000000000
lattice         0.0000000000        40.0000000000         0.0000000000
lattice         0.0000000000         0.0000000000        40.0000000000
atom        19.0621000000       19.7256000000       20.0289000000 H         0.0000000000         0.0000000000       100.2988544798       72.9821951900       -7.6835982999
atom        21.0495000000       19.8763000000       20.0130000000 C         0.0000000000         0.0000000000      -250.2513238801      103.3377932848      -10.8744575874
atom        19.9836000000       20.2631000000       19.9723000000 N         0.0000000000         0.0000000000       149.9531463397     -176.3196884749       18.5580058873
energy      -624.0862801863
charge 0
end
begin
comment generated by PY
lattice        40.0000000000         0.0000000000         0.0000000000
lattice         0.0000000000        40.0000000000         0.0000000000
lattice         0.0000000000         0.0000000000        40.0000000000
atom        18.9394000000       19.8557000000       20.0152000000 H         0.0000000000         0.0000000000       137.2820309292       60.3204503924       -6.3483687963
atom        21.0582000000       19.8898000000       20.0116000000 C         0.0000000000         0.0000000000      -255.5115488590       93.2131560925       -9.8100158880
atom        19.9848000000       20.2423000000       19.9745000000 N         0.0000000000         0.0000000000       118.2301179298     -153.5339064849       16.1584246843
energy      -621.1778225817
charge 0
end
begin
comment generated by PY
lattice        40.0000000000         0.0000000000         0.0000000000
lattice         0.0000000000        40.0000000000         0.0000000000
lattice         0.0000000000         0.0000000000        40.0000000000
atom        18.9132000000       19.7540000000       20.0259000000 H         0.0000000000         0.0000000000       149.7325243141       79.2330308659       -8.3455608591
atom        21.0510000000       19.8843000000       20.0122000000 C         0.0000000000         0.0000000000      -226.5638178326       89.2859790562       -9.4111559568
atom        19.9929000000       20.2543000000       19.9732000000 N         0.0000000000         0.0000000000        76.8313704579     -168.5192868615       17.7566968159
energy      -610.2240752298
charge 0
end
begin
comment generated by PY
lattice        40.0000000000         0.0000000000         0.0000000000
lattice         0.0000000000        40.0000000000         0.0000000000
lattice         0.0000000000         0.0000000000        40.0000000000
atom        18.9373000000       19.6105000000       20.0410000000 H         0.0000000000         0.0000000000       142.3148898195       99.0961423338      -10.4288768473
atom        21.0456000000       19.8747000000       20.0132000000 C         0.0000000000         0.0000000000      -218.3840687484       92.9576063840       -9.7862105896
atom        19.9959000000       20.2727000000       19.9713000000 N         0.0000000000         0.0000000000        76.0692789289     -192.0532487178       20.2151274369
energy      -597.9318970582
charge 0
end
begin
comment generated by PY
lattice        40.0000000000         0.0000000000         0.0000000000
lattice         0.0000000000        40.0000000000         0.0000000000
lattice         0.0000000000         0.0000000000        40.0000000000
atom        18.9415000000       19.6580000000       20.0360000000 H         0.0000000000         0.0000000000       143.8021887816       93.6612513425       -9.8471425695
atom        21.0451000000       19.8779000000       20.0128000000 C         0.0000000000         0.0000000000      -213.2226439323       89.7274790684       -9.4199073538
atom        19.9960000000       20.2666000000       19.9720000000 N         0.0000000000         0.0000000000        69.4204551507     -183.3888304109       19.2670399234
energy      -604.7338869435
charge 0
end
begin
comment generated by PY
lattice        40.0000000000         0.0000000000         0.0000000000
lattice         0.0000000000        40.0000000000         0.0000000000
lattice         0.0000000000         0.0000000000        40.0000000000
atom        18.9282000000       19.8546000000       20.0153000000 H         0.0000000000         0.0000000000       143.3884987757       62.0209788336       -6.5308271697
atom        21.0523000000       19.8903000000       20.0115000000 C         0.0000000000         0.0000000000      -229.1527026080       85.6619213890       -9.0151203762
atom        19.9907000000       20.2419000000       19.9745000000 N         0.0000000000         0.0000000000        85.7640038323     -147.6825002226       15.5459575459
energy      -621.6780845888
charge 0
end
begin
comment generated by PY
lattice        40.0000000000         0.0000000000         0.0000000000
lattice         0.0000000000        40.0000000000         0.0000000000
lattice         0.0000000000         0.0000000000        40.0000000000
atom        18.9659000000       19.9205000000       20.0084000000 H         0.0000000000         0.0000000000       116.9898995804       45.5525904326       -4.7922770219
atom        21.0600000000       19.8939000000       20.0112000000 C         0.0000000000         0.0000000000      -264.2332114386       92.2202160339       -9.7032212192
atom        19.9814000000       20.2341000000       19.9754000000 N         0.0000000000         0.0000000000       147.2429118582     -137.7727834059       14.4955382411
energy      -628.7132912687
charge 0
end
begin
comment generated by PY
lattice        40.0000000000         0.0000000000         0.0000000000
lattice         0.0000000000        40.0000000000         0.0000000000
lattice         0.0000000000         0.0000000000        40.0000000000
atom        18.9081000000       19.9059000000       20.0099000000 H         0.0000000000         0.0000000000       145.0714356885       52.6876378253       -5.5381442385
atom        21.0626000000       19.8929000000       20.0113000000 C         0.0000000000         0.0000000000      -265.4163416530       92.4928171559       -9.7296620671
atom        19.9833000000       20.2360000000       19.9752000000 N         0.0000000000         0.0000000000       120.3443059645     -145.1807549812       15.2678563055
energy      -619.5479498313
charge 0
end
begin
comment generated by PY
lattice        40.0000000000         0.0000000000         0.0000000000
lattice         0.0000000000        40.0000000000         0.0000000000
lattice         0.0000000000         0.0000000000        40.0000000000
atom        18.8500000000       19.8484000000       20.0159000000 H         0.0000000000         0.0000000000       161.4460244159       63.4769162318       -6.6718922902
atom        21.0586000000       19.8905000000       20.0115000000 C         0.0000000000         0.0000000000      -241.3327090043       87.7913996044       -9.2350503280
atom        19.9910000000       20.2422000000       19.9745000000 N         0.0000000000         0.0000000000        79.8872845884     -151.2679158361       15.9069026182
energy      -607.7937622905
charge 0
end
begin
comment generated by PY
lattice        40.0000000000         0.0000000000         0.0000000000
lattice         0.0000000000        40.0000000000         0.0000000000
lattice         0.0000000000         0.0000000000        40.0000000000
atom        18.8374000000       19.7096000000       20.0306000000 H         0.0000000000         0.0000000000       156.8445317620       82.2807773453       -8.6581106812
atom        21.0486000000       19.8848000000       20.0121000000 C         0.0000000000         0.0000000000      -202.8011335187       81.3897123267       -8.5537767664
atom        20.0004000000       20.2569000000       19.9730000000 N         0.0000000000         0.0000000000        45.9560786962     -163.6697896720       17.2118605081
energy      -595.4417360617
charge 0
end
begin
comment generated by PY
lattice        40.0000000000         0.0000000000         0.0000000000
lattice         0.0000000000        40.0000000000         0.0000000000
lattice         0.0000000000         0.0000000000        40.0000000000
atom        19.1009000000       19.6359000000       20.0383000000 H         0.0000000000         0.0000000000       102.0152304763       89.4808826378       -9.4118132373
atom        21.0403000000       19.8703000000       20.0137000000 C         0.0000000000         0.0000000000      -225.5445224364      100.3095674702      -10.5656553608
atom        19.9887000000       20.2747000000       19.9711000000 N         0.0000000000         0.0000000000       123.5298919601     -189.7904501080       19.9774285980
energy      -620.7725576770
charge 0
end
begin
comment generated by PY
lattice        40.0000000000         0.0000000000         0.0000000000
lattice         0.0000000000        40.0000000000         0.0000000000
lattice         0.0000000000         0.0000000000        40.0000000000
atom        19.0743000000       19.6947000000       20.0321000000 H         0.0000000000         0.0000000000       102.2176820275       79.3826305384       -8.3448219406
atom        21.0441000000       19.8741000000       20.0132000000 C         0.0000000000         0.0000000000      -233.2637988100       99.9794717810      -10.5054136950
atom        19.9873000000       20.2672000000       19.9719000000 N         0.0000000000         0.0000000000       131.0466167825     -179.3622023194       18.8501956356
energy      -623.8074090948
charge 0
end
begin
comment generated by PY
lattice        40.0000000000         0.0000000000         0.0000000000
lattice         0.0000000000        40.0000000000         0.0000000000
lattice         0.0000000000         0.0000000000        40.0000000000
atom        18.9948000000       19.8587000000       20.0149000000 H         0.0000000000         0.0000000000       109.4859143393       53.6932736042       -5.6496613698
atom        21.0581000000       19.8881000000       20.0118000000 C         0.0000000000         0.0000000000      -265.1137650732       97.5299264987      -10.2630856903
atom        19.9810000000       20.2435000000       19.9744000000 N         0.0000000000         0.0000000000       155.6279276734     -151.2231001029       15.9127170601
energy      -627.3933809191
charge 0
end
begin
comment generated by PY
lattice        40.0000000000         0.0000000000         0.0000000000
lattice         0.0000000000        40.0000000000         0.0000000000
lattice         0.0000000000         0.0000000000        40.0000000000
atom        18.8430000000       19.9378000000       20.0065000000 H         0.0000000000         0.0000000000       164.2791224724       48.7069470219       -5.1156640086
atom        21.0582000000       19.8983000000       20.0107000000 C         0.0000000000         0.0000000000      -231.1702638061       79.3060635113       -8.3411752222
atom        19.9918000000       20.2291000000       19.9759000000 N         0.0000000000         0.0000000000        66.8912413336     -128.0130105332       13.4568892308
energy      -614.3892336426
charge 0
end
begin
comment generated by PY
lattice        40.0000000000         0.0000000000         0.0000000000
lattice         0.0000000000        40.0000000000         0.0000000000
lattice         0.0000000000         0.0000000000        40.0000000000
atom        18.8358000000       19.7592000000       20.0253000000 H         0.0000000000         0.0000000000       159.9263230524       76.0771988195       -8.0053529973
atom        21.0533000000       19.8860000000       20.0120000000 C         0.0000000000         0.0000000000      -221.3919201288       85.6776057069       -9.0257366214
atom        19.9965000000       20.2524000000       19.9734000000 N         0.0000000000         0.0000000000        61.4652970764     -161.7550045264       17.0311096188
energy      -598.7954315783
charge 0
end
begin
comment generated by PY
lattice        40.0000000000         0.0000000000         0.0000000000
lattice         0.0000000000        40.0000000000         0.0000000000
lattice         0.0000000000         0.0000000000        40.0000000000
atom        18.9631000000       19.6168000000       20.0403000000 H         0.0000000000         0.0000000000       139.4200156212       99.4607872896      -10.4648236587
atom        21.0431000000       19.8745000000       20.0132000000 C         0.0000000000         0.0000000000      -212.5427712419       91.6179492988       -9.6450926228
atom        19.9961000000       20.2725000000       19.9713000000 N         0.0000000000         0.0000000000        73.1222556207     -191.0788365884       20.1098562815
energy      -602.7729750182
charge 0
end
begin
comment generated by PY
lattice        40.0000000000         0.0000000000         0.0000000000
lattice         0.0000000000        40.0000000000         0.0000000000
lattice         0.0000000000         0.0000000000        40.0000000000
atom        19.0635000000       19.6956000000       20.0320000000 H         0.0000000000         0.0000000000       105.6294555686       80.1927021595       -8.4395553369
atom        21.0492000000       19.8715000000       20.0135000000 C         0.0000000000         0.0000000000      -253.4847336359      107.0565091871      -11.2733046269
atom        19.9838000000       20.2694000000       19.9716000000 N         0.0000000000         0.0000000000       147.8549780672     -187.2498113466       19.7129299638
energy      -620.3471893205
charge 0
end
begin
comment generated by PY
lattice        40.0000000000         0.0000000000         0.0000000000
lattice         0.0000000000        40.0000000000         0.0000000000
lattice         0.0000000000         0.0000000000        40.0000000000
atom        19.0000000000       19.8697000000       20.0137000000 H         0.0000000000         0.0000000000       106.7697617362       51.8590904148       -5.4481674623
atom        21.0536000000       19.8881000000       20.0118000000 C         0.0000000000         0.0000000000      -248.9209272543       93.0871186772       -9.7877979912
atom        19.9845000000       20.2428000000       19.9745000000 N         0.0000000000         0.0000000000       142.1513655181     -144.9459860314       15.2359554535
energy      -630.3244495597
charge 0
end
begin
comment generated by PY
lattice        40.0000000000         0.0000000000         0.0000000000
lattice         0.0000000000        40.0000000000         0.0000000000
lattice         0.0000000000         0.0000000000        40.0000000000
atom        18.8583000000       19.8732000000       20.0133000000 H         0.0000000000         0.0000000000       160.0870940159       59.7177540829       -6.2835614020
atom        21.0600000000       19.8898000000       20.0116000000 C         0.0000000000         0.0000000000      -249.3768430047       89.8801731422       -9.4671797628
atom        19.9892000000       20.2410000000       19.9746000000 N         0.0000000000         0.0000000000        89.2894489888     -149.5980272251       15.7507311649
energy      -610.2946179555
charge 0
end
begin
comment generated by PY
lattice        40.0000000000         0.0000000000         0.0000000000
lattice         0.0000000000        40.0000000000         0.0000000000
lattice         0.0000000000         0.0000000000        40.0000000000
atom        18.8398000000       19.6795000000       20.0337000000 H         0.0000000000         0.0000000000       154.1735423872       85.8779566519       -9.0260550851
atom        21.0472000000       19.8807000000       20.0126000000 C         0.0000000000         0.0000000000      -202.6068770588       83.4089436858       -8.7774005415
atom        20.0014000000       20.2627000000       19.9724000000 N         0.0000000000         0.0000000000        48.4334116111     -169.2862003377       17.8034725661
energy      -592.2694250507
charge 0
end
begin
comment generated by PY
lattice        40.0000000000         0.0000000000         0.0000000000
lattice         0.0000000000        40.0000000000         0.0000000000
lattice         0.0000000000         0.0000000000        40.0000000000
atom        19.0333000000       19.6311000000       20.0388000000 H         0.0000000000         0.0000000000       124.5480501112       96.9558834974      -10.1998444658
atom        21.0438000000       19.8687000000       20.0138000000 C         0.0000000000         0.0000000000      -232.0192509294      101.6205106692      -10.6931763595
atom        19.9905000000       20.2764000000       19.9709000000 N         0.0000000000         0.0000000000       107.4717008182     -198.5760941666       20.8931138859
energy      -611.5204116368
charge 0
end
begin
comment generated by PY
lattice        40.0000000000         0.0000000000         0.0000000000
lattice         0.0000000000        40.0000000000         0.0000000000
lattice         0.0000000000         0.0000000000        40.0000000000
atom        19.0117000000       19.7327000000       20.0281000000 H         0.0000000000         0.0000000000       122.9358891524       79.5104381222       -8.3660258647
atom        21.0473000000       19.8759000000       20.0131000000 C         0.0000000000         0.0000000000      -235.6106917310       98.0296054244      -10.3315224716
atom        19.9891000000       20.2630000000       19.9723000000 N         0.0000000000         0.0000000000       112.6748795181     -177.5395435466       18.6974983363
energy      -620.2206141611
charge 0
end
begin
comment generated by PY
lattice        40.0000000000         0.0000000000         0.0000000000
lattice         0.0000000000        40.0000000000         0.0000000000
lattice         0.0000000000         0.0000000000        40.0000000000
atom        18.9897000000       19.9259000000       20.0078000000 H         0.0000000000         0.0000000000       102.1075268674       42.0914694991       -4.4340069183
atom        21.0574000000       19.8910000000       20.0115000000 C         0.0000000000         0.0000000000      -260.7269937499       93.0724270603       -9.8130605343
atom        19.9820000000       20.2362000000       19.9751000000 N         0.0000000000         0.0000000000       158.6191668825     -135.1631965594       14.2470774526
energy      -631.7720700169
charge 0
end
begin
comment generated by PY
lattice        40.0000000000         0.0000000000         0.0000000000
lattice         0.0000000000        40.0000000000         0.0000000000
lattice         0.0000000000         0.0000000000        40.0000000000
atom        18.9359000000       19.9303000000       20.0073000000 H         0.0000000000         0.0000000000       132.8928136162       47.4490487043       -4.9849019900
atom        21.0594000000       19.8912000000       20.0115000000 C         0.0000000000         0.0000000000      -259.7272893095       91.7333736522       -9.6611217026
atom        19.9841000000       20.2358000000       19.9752000000 N         0.0000000000         0.0000000000       126.8347756933     -139.1822223565       14.6460236926
energy      -625.4604453250
charge 0
end
begin
comment generated by PY
lattice        40.0000000000         0.0000000000         0.0000000000
lattice         0.0000000000        40.0000000000         0.0000000000
lattice         0.0000000000         0.0000000000        40.0000000000
atom        18.9522000000       19.6004000000       20.0420000000 H         0.0000000000         0.0000000000       140.1706849682      101.1183751749      -10.6293105383
atom        21.0416000000       19.8709000000       20.0136000000 C         0.0000000000         0.0000000000      -209.3473998667       91.9338304277       -9.6731119092
atom        19.9982000000       20.2767000000       19.9709000000 N         0.0000000000         0.0000000000        69.1765148985     -193.0530286631       20.3024193870
energy      -598.9036382685
charge 0
end
begin
comment generated by PY
lattice        40.0000000000         0.0000000000         0.0000000000
lattice         0.0000000000        40.0000000000         0.0000000000
lattice         0.0000000000         0.0000000000        40.0000000000
atom        18.9189000000       19.6181000000       20.0402000000 H         0.0000000000         0.0000000000       144.6133606233       97.5532465000      -10.2682569659
atom        21.0434000000       19.8732000000       20.0133000000 C         0.0000000000         0.0000000000      -208.6725994431       90.1343375346       -9.4803816595
atom        19.9991000000       20.2735000000       19.9712000000 N         0.0000000000         0.0000000000        64.0593388198     -187.6867840346       19.7485986255
energy      -596.4496622675
charge 0
end
begin
comment generated by PY
lattice        40.0000000000         0.0000000000         0.0000000000
lattice         0.0000000000        40.0000000000         0.0000000000
lattice         0.0000000000         0.0000000000        40.0000000000
atom        19.0050000000       19.9203000000       20.0084000000 H         0.0000000000         0.0000000000        91.3111711318       40.2774629048       -4.2406968957
atom        21.0579000000       19.8901000000       20.0116000000 C         0.0000000000         0.0000000000      -265.7386600180       95.2584488567      -10.0378300384
atom        19.9805000000       20.2374000000       19.9750000000 N         0.0000000000         0.0000000000       174.4277888862     -135.5353117615       14.2785269341
energy      -632.3859171878
charge 0
end
begin
comment generated by PY
lattice        40.0000000000         0.0000000000         0.0000000000
lattice         0.0000000000        40.0000000000         0.0000000000
lattice         0.0000000000         0.0000000000        40.0000000000
atom        18.9505000000       19.8644000000       20.0143000000 H         0.0000000000         0.0000000000       132.3323206570       58.4381410250       -6.1470042200
atom        21.0575000000       19.8864000000       20.0119000000 C         0.0000000000         0.0000000000      -257.8087194958       95.5066700240      -10.0288515995
atom        19.9847000000       20.2445000000       19.9743000000 N         0.0000000000         0.0000000000       125.4767218994     -153.9447110490       16.1758158195
energy      -622.6974826964
charge 0
end
begin
comment generated by PY
lattice        40.0000000000         0.0000000000         0.0000000000
lattice         0.0000000000        40.0000000000         0.0000000000
lattice         0.0000000000         0.0000000000        40.0000000000
atom        18.8861000000       19.5836000000       20.0438000000 H         0.0000000000         0.0000000000       144.0602777584       98.2599015690      -10.3306866637
atom        21.0403000000       19.8732000000       20.0133000000 C         0.0000000000         0.0000000000      -190.9353838912       83.9433627107       -8.8181175987
atom        20.0040000000       20.2759000000       19.9710000000 N         0.0000000000         0.0000000000        46.8751061328     -182.2034642797       19.1487912019
energy      -588.7315122212
charge 0
end
begin
comment generated by PY
lattice        40.0000000000         0.0000000000         0.0000000000
lattice         0.0000000000        40.0000000000         0.0000000000
lattice         0.0000000000         0.0000000000        40.0000000000
atom        19.0041000000       19.6337000000       20.0385000000 H         0.0000000000         0.0000000000       131.8883294263       97.6873762761      -10.2794621276
atom        21.0426000000       19.8700000000       20.0137000000 C         0.0000000000         0.0000000000      -221.9838564099       97.2362238469      -10.2482452307
atom        19.9936000000       20.2751000000       19.9710000000 N         0.0000000000         0.0000000000        90.0954269836     -194.9230001230       20.5276873583
energy      -608.9983141160
charge 0
end
begin
comment generated by PY
lattice        40.0000000000         0.0000000000         0.0000000000
lattice         0.0000000000        40.0000000000         0.0000000000
lattice         0.0000000000         0.0000000000        40.0000000000
atom        18.9980000000       19.8571000000       20.0150000000 H         0.0000000000         0.0000000000       110.6609603666       55.1781406150       -5.8059832481