begin
comment generated by PY
lattice        40.0000000000         0.0000000000         0.0000000000
lattice         0.0000000000        40.0000000000         0.0000000000
lattice         0.0000000000         0.0000000000        40.0000000000
atom        18.3405400000       19.7784400000       20.0735600000 H         0.0000000000         0.0000000000        83.2427144220        8.7768261252       -3.9215305180
atom        20.4865900000       19.9801900000       19.9805200000 C         0.0000000000         0.0000000000      -130.9979885749       10.0114795316       17.1350762798
atom        21.6766500000       20.1184400000       19.9593500000 O         0.0000000000         0.0000000000      -198.1300532306      -26.5339319366        1.1293489968
atom        19.3282100000       19.9184500000       20.0392000000 N         0.0000000000         0.0000000000       245.8255471109        7.7279919000      -14.3390836471
energy      -877.6580588703
charge 0
end
begin
comment generated by PY
lattice        40.0000000000         0.0000000000         0.0000000000
lattice         0.0000000000        40.0000000000         0.0000000000
lattice         0.0000000000         0.0000000000        40.0000000000
atom        18.3610400000       19.4559400000       20.0746900000 H         0.0000000000         0.0000000000        92.0478862548       28.3630797885       -3.6189095546
atom        20.5079300000       19.9724900000       19.9799200000 C         0.0000000000         0.0000000000      -193.7624825819       -6.0609640498       21.0236841336
atom        21.6875800000       20.2071800000       19.9434600000 O         0.0000000000         0.0000000000      -210.4877757139      -42.8186457867        4.9805428018
atom        19.2959500000       19.8466800000       20.0577900000 N         0.0000000000         0.0000000000       312.1463497863       20.4843244624      -22.3591897798
energy      -854.2551596346
charge 0
end
begin
comment generated by PY
lattice        40.0000000000         0.0000000000         0.0000000000
lattice         0.0000000000        40.0000000000         0.0000000000
lattice         0.0000000000         0.0000000000        40.0000000000
atom        18.6462800000       19.0664800000       20.0202000000 H         0.0000000000         0.0000000000        67.3464259103       58.7195791685        2.7645397102
atom        20.5182600000       19.9705800000       19.9887400000 C         0.0000000000         0.0000000000      -210.7379256918      -22.1080820683       14.1246759090
atom        21.6379700000       20.2601400000       19.9292300000 O         0.0000000000         0.0000000000      -140.6518197851      -34.3395365544        8.0732357044
atom        19.3234100000       19.8156000000       20.0703800000 N         0.0000000000         0.0000000000       284.0741360037       -2.2706860946      -24.9583004249
energy      -872.7040247861
charge 0
end
begin
comment generated by PY
lattice        40.0000000000         0.0000000000         0.0000000000
lattice         0.0000000000        40.0000000000         0.0000000000
lattice         0.0000000000         0.0000000000        40.0000000000
atom        19.0720400000       18.7920000000       19.9661900000 H         0.0000000000         0.0000000000        12.7938072691       86.8506237459       11.2063505490
atom        20.5082600000       19.9518000000       19.9935200000 C         0.0000000000         0.0000000000      -118.4990169531       31.7867776268        9.0517862805
atom        21.6513900000       20.3133300000       19.9155500000 O         0.0000000000         0.0000000000      -217.6550608982      -70.1385932734       15.9584122296
atom        19.2862400000       19.7905300000       20.0857700000 N         0.0000000000         0.0000000000       323.4231267298      -48.4824581708      -36.2317320814
energy      -855.3194506914
charge 0
end
begin
comment generated by PY
lattice        40.0000000000         0.0000000000         0.0000000000
lattice         0.0000000000        40.0000000000         0.0000000000
lattice         0.0000000000         0.0000000000        40.0000000000
atom        19.2298400000       18.6758900000       19.9861000000 H         0.0000000000         0.0000000000         1.0399114479       84.2924348192        9.9429601930
atom        20.5168000000       19.9964100000       19.9967800000 C         0.0000000000         0.0000000000      -155.9882402741      -30.5070721855        9.4658802048
atom        21.6315300000       20.3722700000       19.9008000000 O         0.0000000000         0.0000000000      -191.9934096071      -58.1791051814       18.1764622519
atom        19.2903400000       19.6932000000       20.0984100000 N         0.0000000000         0.0000000000       346.9430373689        4.3984560811      -37.6241466125
energy      -848.6476876816
charge 0
end
begin
comment generated by PY
lattice        40.0000000000         0.0000000000         0.0000000000
lattice         0.0000000000        40.0000000000         0.0000000000
lattice         0.0000000000         0.0000000000        40.0000000000
atom        18.9746000000       18.6883800000       20.0587100000 H         0.0000000000         0.0000000000        39.5941439566       71.9717025864        2.0855572780
atom        20.5013500000       20.0304200000       19.9956800000 C         0.0000000000         0.0000000000      -182.3705073100     -106.5815095534       13.4733596025
atom        21.5882600000       20.4179200000       19.8954100000 O         0.0000000000         0.0000000000      -142.3467167713      -35.6097775693       14.5142733528
atom        19.3712800000       19.6109700000       20.1003400000 N         0.0000000000         0.0000000000       285.1003269089       70.2014128244      -30.0757130146
energy      -872.0099775932
charge 0
end
begin
comment generated by PY
lattice        40.0000000000         0.0000000000         0.0000000000
lattice         0.0000000000        40.0000000000         0.0000000000
lattice         0.0000000000         0.0000000000        40.0000000000
atom        18.7675900000       18.7605100000       20.1315700000 H         0.0000000000         0.0000000000        56.5044729047       55.4060345500       -3.5452044511
atom        20.4959700000       19.9804400000       19.9852100000 C         0.0000000000         0.0000000000      -121.5722799964      -45.7627116976       20.0693304182
atom        21.5840600000       20.5170000000       19.8884100000 O         0.0000000000         0.0000000000      -210.0005845800     -100.0204929018       17.8993202276
atom        19.3954700000       19.5354600000       20.1121000000 N         0.0000000000         0.0000000000       275.0523872257       90.3524491419      -34.4273703668
energy      -865.1681667938
charge 0
end
begin
comment generated by PY
lattice        40.0000000000         0.0000000000         0.0000000000
lattice         0.0000000000        40.0000000000         0.0000000000
lattice         0.0000000000         0.0000000000        40.0000000000
atom        18.8232800000       18.6849300000       20.1392900000 H         0.0000000000         0.0000000000        63.3147427499       63.4898252893       -4.0098511285
atom        20.5491600000       19.9163500000       19.9727500000 C         0.0000000000         0.0000000000      -187.4743599565       -6.1568968649       34.7490696487
atom        21.5174700000       20.6025400000       19.8836100000 O         0.0000000000         0.0000000000      -155.2623903689     -122.3844093968       12.4862920984
atom        19.4219700000       19.4980900000       20.1277300000 N         0.0000000000         0.0000000000       279.4254888668       65.0453544115      -43.2202705715
energy      -863.3517731653
charge 0
end
begin
comment generated by PY
lattice        40.0000000000         0.0000000000         0.0000000000
lattice         0.0000000000        40.0000000000         0.0000000000
lattice         0.0000000000         0.0000000000        40.0000000000
atom        19.1988200000       18.4682500000       20.0682000000 H         0.0000000000         0.0000000000        28.7484787898       92.9561925268        6.0959177792
atom        20.5762600000       19.9092300000       19.9733100000 C         0.0000000000         0.0000000000      -219.6571286771      -14.6413568433       37.5322740844
atom        21.4568600000       20.6492200000       19.8735500000 O         0.0000000000         0.0000000000      -100.4476545437     -102.0303356675       10.5923275918
atom        19.4411600000       19.4663200000       20.1438200000 N         0.0000000000         0.0000000000       291.3434286746       23.6970962428      -54.1965195461
energy      -864.7075134319
charge 0
end
begin
comment generated by PY
lattice        40.0000000000         0.0000000000         0.0000000000
lattice         0.0000000000        40.0000000000         0.0000000000
lattice         0.0000000000         0.0000000000        40.0000000000
atom        19.5089900000       18.3515000000       20.0297300000 H         0.0000000000         0.0000000000        -7.2750856244       93.7766752639       12.0200036164
atom        20.5291900000       19.9585100000       19.9889300000 C         0.0000000000         0.0000000000      -125.3271062027      -19.7482108044       19.4723337519
atom        21.4715100000       20.6989500000       19.8536600000 O         0.0000000000         0.0000000000      -183.6602314722     -144.5961371569       27.3083456096
atom        19.4426500000       19.3755600000       20.1559000000 N         0.0000000000         0.0000000000       316.2536233516       70.5904487611      -58.7939662372
energy      -851.1508045027
charge 0
end
begin
comment generated by PY
lattice        40.0000000000         0.0000000000         0.0000000000
lattice         0.0000000000        40.0000000000         0.0000000000
lattice         0.0000000000         0.0000000000        40.0000000000
atom        19.5380000000       18.2875400000       20.0612200000 H         0.0000000000         0.0000000000         3.7966051006       92.2749481313        7.2016176836
atom        20.4708700000       20.0430900000       20.0038500000 C         0.0000000000         0.0000000000       -90.4228726026     -137.4665551837        8.6908229569
atom        21.4375900000       20.7022300000       19.8437900000 O         0.0000000000         0.0000000000      -164.1383717474      -89.9407401268       29.0439606767
atom        19.5293700000       19.3038200000       20.1521300000 N         0.0000000000         0.0000000000       250.7545560615      135.1199483621      -44.9395697940
energy      -867.8761078574
charge 0
end
begin
comment generated by PY
lattice        40.0000000000         0.0000000000         0.0000000000
lattice         0.0000000000        40.0000000000         0.0000000000
lattice         0.0000000000         0.0000000000        40.0000000000
atom        19.5309700000       18.2110500000       20.1163600000 H         0.0000000000         0.0000000000        14.9100142003       89.6724646228        1.3505477756
atom        20.4642100000       20.0663300000       19.9987200000 C         0.0000000000         0.0000000000      -112.7743886875     -209.4228417491       20.7421899899
atom        21.3809200000       20.7622100000       19.8367000000 O         0.0000000000         0.0000000000      -133.0376176529      -72.0287681873       24.0619436745
atom        19.6003500000       19.2208100000       20.1607000000 N         0.0000000000         0.0000000000       230.8704436736      191.8120675926      -46.1705301576
energy      -864.1489562385
charge 0
end
begin
comment generated by PY
lattice        40.0000000000         0.0000000000         0.0000000000
lattice         0.0000000000        40.0000000000         0.0000000000
lattice         0.0000000000         0.0000000000        40.0000000000
atom        19.6362200000       18.1770500000       20.1241100000 H         0.0000000000         0.0000000000         4.5572094095       82.9551250302        2.4629596882
atom        20.5156100000       19.9830000000       19.9817500000 C         0.0000000000         0.0000000000      -105.6129905879      -83.9769652647       29.6019633632
atom        21.3284000000       20.8582700000       19.8324300000 O         0.0000000000         0.0000000000      -156.6384319344     -161.1569412362       27.9530890387
atom        19.6087500000       19.1849400000       20.1795900000 N         0.0000000000         0.0000000000       257.6966868922      162.1731708512      -60.0399934897
energy      -859.8897277363
charge 0
end
begin
comment generated by PY
lattice        40.0000000000         0.0000000000         0.0000000000
lattice         0.0000000000        40.0000000000         0.0000000000
lattice         0.0000000000         0.0000000000        40.0000000000
atom        19.7888700000       18.1967300000       20.1046400000 H         0.0000000000         0.0000000000       -13.3099948976       76.2772919182        7.0388436961
atom        20.5928700000       19.9154400000       19.9689000000 C         0.0000000000         0.0000000000      -168.2782818023       -6.2853338082       41.8091037167
atom        21.2345700000       20.9011300000       19.8352800000 O         0.0000000000         0.0000000000       -93.8748406693     -171.8090398126       18.9906444623
atom        19.6387900000       19.1925100000       20.1887400000 N         0.0000000000         0.0000000000       275.4344737135      101.8448159968      -67.8675759234
energy      -865.7970223465
charge 0
end
begin
comment generated by PY
lattice        40.0000000000         0.0000000000         0.0000000000
lattice         0.0000000000        40.0000000000         0.0000000000
lattice         0.0000000000         0.0000000000        40.0000000000
atom        19.7662800000       18.1218900000       20.1411200000 H         0.0000000000         0.0000000000         3.4777053886       77.7925213359        2.5637765922
atom        20.6310600000       19.9274600000       19.9705500000 C         0.0000000000         0.0000000000      -219.0936969683      -75.8819393925       46.6603304742
atom        21.1526900000       20.9561000000       19.8261100000 O         0.0000000000         0.0000000000       -55.5637059976     -148.5546660109       17.8791140437
atom        19.7012200000       19.1247300000       20.1951900000 N         0.0000000000         0.0000000000       271.1668013071      146.6316009790      -67.1317170080
energy      -857.7346554012
charge 0
end
begin
comment generated by PY
lattice        40.0000000000         0.0000000000         0.0000000000
lattice         0.0000000000        40.0000000000         0.0000000000
lattice         0.0000000000         0.0000000000        40.0000000000
atom        19.7989000000       18.0446900000       20.1763900000 H         0.0000000000         0.0000000000         9.5402199991       77.4963188915       -1.1159282905
atom        20.5490100000       19.9677600000       19.9897800000 C         0.0000000000         0.0000000000      -118.7356015231      -94.4531879514       24.8019916163
atom        21.1355400000       21.0008700000       19.8104000000 O         0.0000000000         0.0000000000      -105.2166336214     -188.6198147492       33.8970618701
atom        19.7888700000       19.0445200000       20.1941300000 N         0.0000000000         0.0000000000       214.4251639625      205.5849933641      -57.5817897448
energy      -863.6566843804
charge 0
end
begin
comment generated by PY
lattice        40.0000000000         0.0000000000         0.0000000000
lattice         0.0000000000        40.0000000000         0.0000000000
lattice         0.0000000000         0.0000000000        40.0000000000
atom        20.0950900000       18.0238700000       20.1484300000 H         0.0000000000         0.0000000000       -13.1198978250       83.8017888548        1.9459458748
atom        20.4663400000       20.0184000000       19.9979200000 C         0.0000000000         0.0000000000       -34.2878751974     -147.2401255987       18.1959706916
atom        21.1079300000       20.9988200000       19.8044600000 O         0.0000000000         0.0000000000      -118.2701452236     -152.5123632897       34.3054882899
atom        19.8702000000       19.0049000000       20.1959300000 N         0.0000000000         0.0000000000       165.6813467228      215.9444277775      -54.4277411483
energy      -872.0361890719
charge 0
end
begin
comment generated by PY
lattice        40.0000000000         0.0000000000         0.0000000000
lattice         0.0000000000        40.0000000000         0.0000000000
lattice         0.0000000000         0.0000000000        40.0000000000
atom        20.5189900000       18.1287200000       20.0798900000 H         0.0000000000         0.0000000000       -55.8379232681       76.5096939409       11.4315134865
atom        20.4668300000       20.0365100000       19.9865200000 C         0.0000000000         0.0000000000       -43.2893892865     -181.6622030967       34.8959995926
atom        21.0533500000       21.0307100000       19.8007300000 O         0.0000000000         0.0000000000      -103.9384231409     -141.5706548026       29.3131995398
atom        19.9018700000       18.9454400000       20.2148700000 N         0.0000000000         0.0000000000       203.0900643608      246.7148084951      -75.6088006994
energy      -854.7508276751
charge 0
end
begin
comment generated by PY
lattice        40.0000000000         0.0000000000         0.0000000000
lattice         0.0000000000        40.0000000000         0.0000000000
lattice         0.0000000000         0.0000000000        40.0000000000
atom        20.6552400000       18.1730600000       20.0843600000 H         0.0000000000         0.0000000000       -69.1172763007       63.6356635810       14.0218884894
atom        20.5264000000       19.9920900000       19.9792700000 C         0.0000000000         0.0000000000       -81.3781312879     -100.0739394496       37.6813026589
atom        20.9594300000       21.0826000000       19.7986100000 O         0.0000000000         0.0000000000       -79.1194108748     -191.5029268501       31.0352662506
atom        19.9483700000       18.9210700000       20.2232000000 N         0.0000000000         0.0000000000       229.6118667132      227.9264441809      -82.7081297177
energy      -855.4021277966
charge 0
end
begin
comment generated by PY
lattice        40.0000000000         0.0000000000         0.0000000000
lattice         0.0000000000        40.0000000000         0.0000000000
lattice         0.0000000000         0.0000000000        40.0000000000
atom        20.4097100000       17.9696000000       20.1949700000 H         0.0000000000         0.0000000000       -28.2601587393       89.7538881345       -0.1463399391
atom        20.5604200000       19.9765800000       19.9851000000 C         0.0000000000         0.0000000000       -94.1782676578     -104.8575412792       30.4372180613
atom        20.8749200000       21.1090200000       19.7972600000 O         0.0000000000         0.0000000000       -51.2354045491     -194.2428382260       32.2101806412
atom        20.0332900000       18.9187100000       20.2118400000 N         0.0000000000         0.0000000000       173.6372646748      209.3321783153      -62.4597332430
energy      -868.8970560358
charge 0
end
begin
comment generated by PY
lattice        40.0000000000         0.0000000000         0.0000000000
lattice         0.0000000000        40.0000000000         0.0000000000
lattice         0.0000000000         0.0000000000        40.0000000000
atom        20.1612300000       17.8732700000       20.3104500000 H         0.0000000000         0.0000000000         9.8535751929       94.9911921809      -12.1947264498
atom        20.5771500000       19.9922900000       19.9893600000 C         0.0000000000         0.0000000000      -113.9007808567     -181.8648098157       36.7518641241
atom        20.7961200000       21.1360800000       19.7942600000 O         0.0000000000         0.0000000000       -26.8648146692     -176.8191219775       30.3264324082
atom        20.1267300000       18.8812000000       20.2033700000 N         0.0000000000         0.0000000000       130.8864507907      263.7220265083      -54.8637080112
energy      -860.9272869597
charge 0
end
begin
comment generated by PY
lattice        40.0000000000         0.0000000000         0.0000000000
lattice         0.0000000000        40.0000000000         0.0000000000
lattice         0.0000000000         0.0000000000        40.0000000000
atom        20.2297700000       17.8807500000       20.3936400000 H         0.0000000000         0.0000000000         9.3728451225       81.3897883623      -15.9787301401
atom        20.5497600000       19.9970700000       19.9961000000 C         0.0000000000         0.0000000000       -75.0100515743     -180.9206893856       32.2443043592
atom        20.7115400000       21.1515800000       19.7932200000 O         0.0000000000         0.0000000000       -19.9006872976     -177.7686392237       30.8239219833
atom        20.2419900000       18.8588500000       20.1928200000 N         0.0000000000         0.0000000000        85.5248553581      277.3108086714      -47.0822398876
energy      -869.0962996466
charge 0
end
begin
comment generated by PY
lattice        40.0000000000         0.0000000000         0.0000000000
lattice         0.0000000000        40.0000000000         0.0000000000
lattice         0.0000000000         0.0000000000        40.0000000000
atom        20.5648900000       17.9245000000       20.4882300000 H         0.0000000000         0.0000000000       -10.6201771042       70.6508014420      -19.9875099516
atom        20.5063000000       19.9943100000       20.0078800000 C         0.0000000000         0.0000000000       -13.2081377480     -138.8753294066       16.7367390811
atom        20.6445800000       21.1701100000       19.7906700000 O         0.0000000000         0.0000000000       -28.8408340963     -208.1151458102       38.0650892002
atom        20.3318600000       18.8369200000       20.1788700000 N         0.0000000000         0.0000000000        52.6440437694      276.3286967411      -34.7948552272
energy      -871.6704125176
charge 0
end
begin
comment generated by PY
lattice        40.0000000000         0.0000000000         0.0000000000
lattice         0.0000000000        40.0000000000         0.0000000000
lattice         0.0000000000         0.0000000000        40.0000000000
atom        20.9903600000       18.1442800000       20.6083400000 H         0.0000000000         0.0000000000       -47.1899739433       60.9784501147      -35.0619622321
atom        20.5095300000       20.0137600000       20.0203600000 C         0.0000000000         0.0000000000        -8.9224636757     -171.8818828518        7.3669881621
atom        20.5813400000       21.1701200000       19.7915700000 O         0.0000000000         0.0000000000       -19.4160830818     -187.6084517892       37.2095824442
atom        20.3709700000       18.8045200000       20.1585700000 N         0.0000000000         0.0000000000        75.5041457016      298.4454705738       -9.4844582379
energy      -863.9883115045
charge 0
end
begin
comment generated by PY
lattice        40.0000000000         0.0000000000         0.0000000000
lattice         0.0000000000        40.0000000000         0.0000000000
lattice         0.0000000000         0.0000000000        40.0000000000
atom        21.2511200000       18.5037300000       20.6558200000 H         0.0000000000         0.0000000000       -73.6178905463       13.6636811314      -42.4200112969
atom        20.5480800000       20.0217200000       20.0231300000 C         0.0000000000         0.0000000000       -55.5911557483     -173.1311011118       -7.1173112948
atom        20.5083800000       21.1603000000       19.7986300000 O         0.0000000000         0.0000000000         7.3651724159     -162.3160682248       34.1674143372
atom        20.4026600000       18.7832500000       20.1447400000 N         0.0000000000         0.0000000000       121.8296085811      321.7414643418       15.3900219917
energy      -856.6971200833
charge 0
end
begin
comment generated by PY
lattice        40.0000000000         0.0000000000         0.0000000000
lattice         0.0000000000        40.0000000000         0.0000000000
lattice         0.0000000000         0.0000000000        40.0000000000
atom        21.2940700000       18.3765000000       20.6598200000 H         0.0000000000         0.0000000000       -67.0565859057       34.7400173560      -43.5519184508
atom        20.5456300000       20.0032400000       19.9942300000 C         0.0000000000         0.0000000000       -33.6504893787     -123.0850151665       19.8993279955
atom        20.4173600000       21.1776600000       19.8085300000 O         0.0000000000         0.0000000000        22.9130632807     -215.9020951282       29.6920156348
atom        20.5057000000       18.7883400000       20.1579300000 N         0.0000000000         0.0000000000        77.7684378559      304.2125325093       -6.0150440591
energy      -860.6692276160
charge 0
end
begin
comment generated by PY
lattice        40.0000000000         0.0000000000         0.0000000000
lattice         0.0000000000        40.0000000000         0.0000000000
lattice         0.0000000000         0.0000000000        40.0000000000
atom        21.1671900000       18.0889900000       20.5745500000 H         0.0000000000         0.0000000000       -41.2258871566       69.7784632756      -32.6071384455
atom        20.5179900000       20.0042200000       19.9841600000 C         0.0000000000         0.0000000000        17.4479731984     -166.7513794146       43.2618279125
atom        20.3553100000       21.1644500000       19.8109500000 O         0.0000000000         0.0000000000        21.6247435075     -186.5935676669       21.8492461342
atom        20.6093900000       18.8231300000       20.1698900000 N         0.0000000000         0.0000000000         2.1627597598      283.5418473829      -32.4840574088
energy      -870.1015465513
charge 0
end
begin
comment generated by PY
lattice        40.0000000000         0.0000000000         0.0000000000
lattice         0.0000000000        40.0000000000         0.0000000000
lattice         0.0000000000         0.0000000000        40.0000000000
atom        21.1149000000       17.9613000000       20.4668300000 H         0.0000000000         0.0000000000       -30.3298609401       84.2362781518      -22.3140692117
atom        20.5164700000       20.0202700000       20.0159000000 C         0.0000000000         0.0000000000        36.2046548915     -217.2598181909       19.0199678438
atom        20.2665800000       21.1488300000       19.7990800000 O         0.0000000000         0.0000000000        35.2535066002     -164.8361398786       32.7815462175
atom        20.7158200000       18.8363400000       20.1639100000 N         0.0000000000         0.0000000000       -41.1539591837      297.8631698183      -29.4656065107
energy      -864.7069555866
charge 0
end
begin
comment generated by PY
lattice        40.0000000000         0.0000000000         0.0000000000
lattice         0.0000000000        40.0000000000         0.0000000000
lattice         0.0000000000         0.0000000000        40.0000000000
atom        21.2239100000       18.0181100000       20.4995300000 H         0.0000000000         0.0000000000       -31.8242103424       78.5373413136      -23.4379188896
atom        20.5357000000       20.0169600000       20.0549900000 C         0.0000000000         0.0000000000        18.4557209543     -164.0200746544      -25.7265402784
atom        20.1648200000       21.1291300000       19.7910700000 O         0.0000000000         0.0000000000        67.3140376682     -192.2548571564       52.2604610245
atom        20.8078200000       18.8576300000       20.1372000000 N         0.0000000000         0.0000000000       -53.9229258826      277.7736722842       -3.0748183945
energy      -866.4427122297
charge 0
end
begin
comment generated by PY
lattice        40.0000000000         0.0000000000         0.0000000000
lattice         0.0000000000        40.0000000000         0.0000000000
lattice         0.0000000000         0.0000000000        40.0000000000
atom        21.4110000000       18.2908000000       20.7288900000 H         0.0000000000         0.0000000000       -44.0434602379       56.7161134738      -47.7964478539
atom        20.5399100000       20.0236400000       20.0581200000 C         0.0000000000         0.0000000000        19.5182390780     -151.5116155377      -30.6663598223
atom        20.0914200000       21.0941200000       19.8053500000 O         0.0000000000         0.0000000000        76.9154233883     -175.9435728536       45.8561768480
atom        20.8747300000       18.8724300000       20.1018100000 N         0.0000000000         0.0000000000       -52.3762275363      270.7138384944       32.6404145311
energy      -870.7924115930
charge 0
end
begin
comment generated by PY
lattice        40.0000000000         0.0000000000         0.0000000000
lattice         0.0000000000        40.0000000000         0.0000000000
lattice         0.0000000000         0.0000000000        40.0000000000
atom        21.5189000000       18.7007400000       20.9173100000 H         0.0000000000         0.0000000000       -49.1142004132       11.0236905875      -72.1572468035
atom        20.5219500000       20.0335300000       20.0343100000 C         0.0000000000         0.0000000000        42.2820566076     -171.2388364522      -18.9180279649
atom        20.0393500000       21.0805600000       19.8287900000 O         0.0000000000         0.0000000000        75.7933311572     -164.1613237488       31.6100191706
atom        20.9419300000       18.8501700000       20.0819900000 N         0.0000000000         0.0000000000       -68.9710189028      324.3690669648       59.4521110855
energy      -854.8177647139