begin
comment generated by PY
lattice        40.0000000000         0.0000000000         0.0000000000
lattice         0.0000000000        40.0000000000         0.0000000000
lattice         0.0000000000         0.0000000000        40.0000000000
atom        21.9789000000       19.7587000000       19.8083000000 H         0.0000000000         0.0000000000       -90.4211991484      -67.1840247188        8.4225037820
atom        20.0272000000       21.0412000000       19.9061000000 O         0.0000000000         0.0000000000        24.5971261680     -339.8238096991        0.4298395236
atom        21.3237000000       19.0519000000       19.8728000000 O         0.0000000000         0.0000000000      -107.9484220196      153.2364481535       -1.9648862507
atom        18.9483000000       19.0516000000       19.9209000000 O         0.0000000000         0.0000000000       316.4644349892      169.4895081554       -2.9085269526
atom        20.0349000000       19.7491000000       19.9074000000 N         0.0000000000         0.0000000000      -142.6921347286       84.2816781090       -3.9789591629
energy      -920.2109707100
charge 0
end
begin
comment generated by PY
lattice        40.0000000000         0.0000000000         0.0000000000
lattice         0.0000000000        40.0000000000         0.0000000000
lattice         0.0000000000         0.0000000000        40.0000000000
atom        21.8377000000       19.5579000000       19.4208000000 H         0.0000000000         0.0000000000       -37.0706505041      -14.0652428300       29.4911980333
atom        20.0576000000       21.0684000000       19.9366000000 O         0.0000000000         0.0000000000         0.0618757883     -346.3482289608      -30.7873894261
atom        21.2792000000       19.0458000000       19.9159000000 O         0.0000000000         0.0000000000      -142.4218083618      115.6361645522      -38.4834710555
atom        18.9831000000       19.0144000000       19.9171000000 O         0.0000000000         0.0000000000       290.2112525995      208.7500930123      -20.5752955149
atom        20.0214000000       19.7819000000       19.8552000000 N         0.0000000000         0.0000000000      -110.7811725824       36.0273142262       60.3549579632
energy      -926.8855726119
charge 0
end
begin
comment generated by PY
lattice        40.0000000000         0.0000000000         0.0000000000
lattice         0.0000000000        40.0000000000         0.0000000000
lattice         0.0000000000         0.0000000000        40.0000000000
atom        21.5528000000       18.7422000000       20.7299000000 H         0.0000000000         0.0000000000       -54.8816538034       55.3578273868     -121.8688721599
atom        20.0685000000       21.0831000000       20.0116000000 O         0.0000000000         0.0000000000       -24.5236581950     -358.3146205830      -31.7839796468
atom        21.2933000000       19.0772000000       19.8146000000 O         0.0000000000         0.0000000000      -100.7366098294       45.7795032902      118.6733447114
atom        19.0028000000       18.9972000000       19.8142000000 O         0.0000000000         0.0000000000       264.2272883296      234.3642572477       25.2012100047
atom        19.9907000000       19.8071000000       19.9095000000 N         0.0000000000         0.0000000000       -84.0855665018       22.8126326584        9.7781631512
energy      -908.6920130026
charge 0
end
begin
comment generated by PY
lattice        40.0000000000         0.0000000000         0.0000000000
lattice         0.0000000000        40.0000000000         0.0000000000
lattice         0.0000000000         0.0000000000        40.0000000000
atom        21.0125000000       18.4258000000       19.2622000000 H         0.0000000000         0.0000000000        27.9728664320       76.8383761558       79.8383959927
atom        20.0295000000       21.0509000000       19.9114000000 O         0.0000000000         0.0000000000        24.9177316635     -343.7757005082       64.4070211254
atom        21.3330000000       19.0999000000       19.8789000000 O         0.0000000000         0.0000000000      -198.3331983540       22.7421118449      -38.9257604306
atom        18.9861000000       19.0418000000       19.8221000000 O         0.0000000000         0.0000000000       275.1237044488      174.5971550456       74.9519927667
atom        20.0476000000       19.7896000000       20.0464000000 N         0.0000000000         0.0000000000      -129.6810711298       69.5978674620     -180.2716725148
energy      -913.1620328345
charge 0
end
begin
comment generated by PY
lattice        40.0000000000         0.0000000000         0.0000000000
lattice         0.0000000000        40.0000000000         0.0000000000
lattice         0.0000000000         0.0000000000        40.0000000000
atom        21.1510000000       18.1133000000       19.6657000000 H         0.0000000000         0.0000000000        -2.9852177926      143.9150489246       30.3817632638
atom        20.0041000000       21.0384000000       20.0502000000 O         0.0000000000         0.0000000000        47.7882635908     -344.0495081142       31.4545240404
atom        21.3293000000       19.0963000000       19.8494000000 O         0.0000000000         0.0000000000      -160.5192290817      -16.7221592649       19.9913572555
atom        19.0020000000       19.0755000000       19.6738000000 O         0.0000000000         0.0000000000       259.7242474625      155.4544628301      117.4708980305
atom        20.0527000000       19.7918000000       20.0620000000 N         0.0000000000         0.0000000000      -144.0080341789       61.4018556245     -199.2985335297
energy      -906.6816025584
charge 0
end
begin
comment generated by PY
lattice        40.0000000000         0.0000000000         0.0000000000
lattice         0.0000000000        40.0000000000         0.0000000000
lattice         0.0000000000         0.0000000000        40.0000000000
atom        20.9388000000       18.2270000000       19.8239000000 H         0.0000000000         0.0000000000        26.2942185436       89.5760258436        4.1780761646
atom        20.0619000000       21.0922000000       20.1067000000 O         0.0000000000         0.0000000000        -8.2612154383     -359.3669338343      -68.3749421106
atom        21.2943000000       19.1016000000       19.8867000000 O         0.0000000000         0.0000000000      -203.2371672095       25.8853197664       -6.5486067386
atom        19.0207000000       18.9979000000       19.7313000000 O         0.0000000000         0.0000000000       259.4720169580      218.9395628433       35.8133469295
atom        20.0205000000       19.8046000000       19.8778000000 N         0.0000000000         0.0000000000       -74.2679628537       24.9658253810       34.9321688157
energy      -921.6142634540
charge 0
end
begin
comment generated by PY
lattice        40.0000000000         0.0000000000         0.0000000000
lattice         0.0000000000        40.0000000000         0.0000000000
lattice         0.0000000000         0.0000000000        40.0000000000
atom        21.2749000000       18.5006000000       19.1814000000 H         0.0000000000         0.0000000000       -11.8767899405       59.6133941018       80.4917934451
atom        20.0412000000       21.0875000000       20.1002000000 O         0.0000000000         0.0000000000         4.4601641060     -348.5743855469      -85.4590396753
atom        21.2948000000       19.0665000000       19.9444000000 O         0.0000000000         0.0000000000      -146.5811246704       54.1406481784      -98.0761158436
atom        19.0215000000       19.0260000000       19.7761000000 O         0.0000000000         0.0000000000       265.8315475100      213.5907877985       -5.6010873856
atom        20.0187000000       19.7987000000       19.8141000000 N         0.0000000000         0.0000000000      -111.8339639447       21.2289254682      108.6447494594
energy      -916.1040857469
charge 0
end
begin
comment generated by PY
lattice        40.0000000000         0.0000000000         0.0000000000
lattice         0.0000000000        40.0000000000         0.0000000000
lattice         0.0000000000         0.0000000000        40.0000000000
atom        21.0525000000       18.1212000000       19.8907000000 H         0.0000000000         0.0000000000        19.1982974166      150.9990337589       -5.4517984488
atom        20.0413000000       21.0749000000       20.0854000000 O         0.0000000000         0.0000000000        11.3386771367     -357.3589388891      -40.0316529521
atom        21.3016000000       19.1221000000       19.8664000000 O         0.0000000000         0.0000000000      -200.5401963378      -32.6890215624       18.9667276077
atom        19.0145000000       19.0247000000       19.7240000000 O         0.0000000000         0.0000000000       269.8070362879      194.7514070016       58.7289133723
atom        20.0347000000       19.7780000000       19.9288000000 N         0.0000000000         0.0000000000       -99.8036294428       44.2964796911      -32.2121465186
energy      -918.4784338599
charge 0
end
begin
comment generated by PY
lattice        40.0000000000         0.0000000000         0.0000000000
lattice         0.0000000000        40.0000000000         0.0000000000
lattice         0.0000000000         0.0000000000        40.0000000000
atom        21.1928000000       18.4909000000       19.1545000000 H         0.0000000000         0.0000000000         6.9114250065       79.0712086809      102.5725525714
atom        20.0476000000       21.0417000000       20.0365000000 O         0.0000000000         0.0000000000         5.3047161616     -353.4228703385        8.8492065048
atom        21.3501000000       19.1144000000       19.9062000000 O         0.0000000000         0.0000000000      -185.7500654474        7.9233674865      -75.8592350873
atom        18.9620000000       19.0596000000       19.7207000000 O         0.0000000000         0.0000000000       288.9942005184      168.2583115440       83.1101019853
atom        20.0220000000       19.7586000000       19.9957000000 N         0.0000000000         0.0000000000      -115.4603362391       98.1700326271     -118.6726590347
energy      -911.5032628724
charge 0
end
begin
comment generated by PY
lattice        40.0000000000         0.0000000000         0.0000000000
lattice         0.0000000000        40.0000000000         0.0000000000
lattice         0.0000000000         0.0000000000        40.0000000000
atom        21.4600000000       18.3604000000       20.3409000000 H         0.0000000000         0.0000000000       -32.7297284807       68.9749222536      -43.3842096646
atom        20.0440000000       20.9995000000       20.0642000000 O         0.0000000000         0.0000000000        16.0742038781     -346.2520018748       -4.5686304761
atom        21.3720000000       19.1369000000       19.8260000000 O         0.0000000000         0.0000000000      -147.0248308533       15.5504888499       64.5423583611
atom        18.9273000000       19.1035000000       19.6967000000 O         0.0000000000         0.0000000000       300.8016503768      136.9162389851       91.5811910787
atom        20.0217000000       19.7402000000       19.9985000000 N         0.0000000000         0.0000000000      -137.1207049210      124.8098517862     -108.1708092991
energy      -917.2246950036
charge 0
end
begin
comment generated by PY
lattice        40.0000000000         0.0000000000         0.0000000000
lattice         0.0000000000        40.0000000000         0.0000000000
lattice         0.0000000000         0.0000000000        40.0000000000
atom        21.4536000000       18.2766000000       19.3806000000 H         0.0000000000         0.0000000000       -47.1225259960       96.2033334722       55.2833956008
atom        20.0458000000       21.0471000000       20.0966000000 O         0.0000000000         0.0000000000         4.9151827727     -353.1312585006      -73.0379982024
atom        21.3437000000       19.0804000000       19.9149000000 O         0.0000000000         0.0000000000      -112.1729918408       17.5326399329      -53.0886582179
atom        18.9742000000       19.0727000000       19.7664000000 O         0.0000000000         0.0000000000       284.0880955810      189.1638305948       12.8322284133
atom        19.9989000000       19.7915000000       19.8488000000 N         0.0000000000         0.0000000000      -129.7082035775       50.2316545006       58.0110324063
energy      -918.7113947633
charge 0
end
begin
comment generated by PY
lattice        40.0000000000         0.0000000000         0.0000000000
lattice         0.0000000000        40.0000000000         0.0000000000
lattice         0.0000000000         0.0000000000        40.0000000000
atom        21.7404000000       19.4620000000       19.1029000000 H         0.0000000000         0.0000000000       -54.7234952522      -54.6166024705      118.1104936831
atom        20.0147000000       21.0117000000       20.0371000000 O         0.0000000000         0.0000000000        47.2285722443     -331.5102919569      -35.1257071061
atom        21.3560000000       19.0267000000       19.9295000000 O         0.0000000000         0.0000000000      -113.5996994950      147.0838918020     -118.6234046849
atom        18.9264000000       19.1090000000       19.7798000000 O         0.0000000000         0.0000000000       314.2425507407      141.6435166288       33.7479658979
atom        20.0544000000       19.7672000000       19.9047000000 N         0.0000000000         0.0000000000      -193.1484512983       97.4002859966        1.8907061495
energy      -908.3936367034
charge 0
end
begin
comment generated by PY
lattice        40.0000000000         0.0000000000         0.0000000000
lattice         0.0000000000        40.0000000000         0.0000000000
lattice         0.0000000000         0.0000000000        40.0000000000
atom        21.1897000000       18.2643000000       20.4950000000 H         0.0000000000         0.0000000000        -3.5671726446      108.0181607253      -93.8457098900
atom        19.9488000000       21.0772000000       19.9910000000 O         0.0000000000         0.0000000000        92.6642466631     -335.2580367142      -44.4750156743
atom        21.3367000000       18.9975000000       19.8195000000 O         0.0000000000         0.0000000000      -139.8932907332       34.0614980955       85.6994419156
atom        19.0157000000       19.0928000000       19.8818000000 O         0.0000000000         0.0000000000       283.5035341678      167.4693073317       -9.5175766531
atom        20.0891000000       19.8297000000       19.8669000000 N         0.0000000000         0.0000000000      -232.7074274530       25.7094305616       62.1388603019
energy      -903.7524727364
charge 0
end
begin
comment generated by PY
lattice        40.0000000000         0.0000000000         0.0000000000
lattice         0.0000000000        40.0000000000         0.0000000000
lattice         0.0000000000         0.0000000000        40.0000000000
atom        21.3485000000       18.4148000000       20.5391000000 H         0.0000000000         0.0000000000       -21.2333534634       75.8571039636      -82.5494238878
atom        19.9876000000       21.0683000000       20.1340000000 O         0.0000000000         0.0000000000        45.8775598728     -341.0861499231      -66.5135997865
atom        21.3425000000       19.0370000000       19.8021000000 O         0.0000000000         0.0000000000      -139.0980567256       36.7092702002       83.7245677514
atom        19.0066000000       19.1042000000       19.7291000000 O         0.0000000000         0.0000000000       289.2794643759      161.8125731028       40.8022823838
atom        20.0372000000       19.7711000000       19.8948000000 N         0.0000000000         0.0000000000      -174.8260209991       66.7074726565       24.5358715997
energy      -914.4982016694
charge 0
end
begin
comment generated by PY
lattice        40.0000000000         0.0000000000         0.0000000000
lattice         0.0000000000        40.0000000000         0.0000000000
lattice         0.0000000000         0.0000000000        40.0000000000
atom        21.3971000000       18.6586000000       19.0475000000 H         0.0000000000         0.0000000000       -31.6645610755       34.7666952290       62.6484126221
atom        19.9918000000       20.9844000000       20.3502000000 O         0.0000000000         0.0000000000        36.4875808536     -339.5342675264     -100.8593939041
atom        21.3318000000       19.0450000000       19.8855000000 O         0.0000000000         0.0000000000      -132.4133841025       78.3243048585      -31.3080078222
atom        19.0157000000       19.1472000000       19.4793000000 O         0.0000000000         0.0000000000       275.4067549552      159.3863829325      123.9646793656
atom        20.0308000000       19.7913000000       19.9443000000 N         0.0000000000         0.0000000000      -147.8163175703       67.0567845064      -54.4460902614
energy      -923.9524478394
charge 0
end
begin
comment generated by PY
lattice        40.0000000000         0.0000000000         0.0000000000
lattice         0.0000000000        40.0000000000         0.0000000000
lattice         0.0000000000         0.0000000000        40.0000000000
atom        21.0710000000       18.2407000000       19.5474000000 H         0.0000000000         0.0000000000        20.3743862672      112.5211319097       41.7732326181
atom        20.0430000000       21.0171000000       20.2330000000 O         0.0000000000         0.0000000000        28.3634666892     -344.6718026802      -77.2777501974
atom        21.3182000000       19.1307000000       19.8787000000 O         0.0000000000         0.0000000000      -222.1474700814      -13.3821762418      -31.9218987771
atom        18.9646000000       19.0988000000       19.5912000000 O         0.0000000000         0.0000000000       298.5833987418      140.8094787944       83.2744483408
atom        20.0695000000       19.7410000000       19.9225000000 N         0.0000000000         0.0000000000      -125.1737385562      104.7229451574      -15.8480550450
energy      -917.7063349755
charge 0
end
begin
comment generated by PY
lattice        40.0000000000         0.0000000000         0.0000000000
lattice         0.0000000000        40.0000000000         0.0000000000
lattice         0.0000000000         0.0000000000        40.0000000000
atom        21.7971000000       19.3245000000       20.6161000000 H         0.0000000000         0.0000000000       -72.1939009127      -21.4055041662     -103.7769167757
atom        20.0632000000       21.0543000000       20.0136000000 O         0.0000000000         0.0000000000         6.5013185722     -345.1372182116      -28.0041274999
atom        21.3131000000       19.0432000000       19.8066000000 O         0.0000000000         0.0000000000      -111.5031269114      109.5463970465      106.3374900287
atom        18.9404000000       19.0731000000       19.8346000000 O         0.0000000000         0.0000000000       314.3607654123      170.6271191376       12.2248635280
atom        20.0279000000       19.7505000000       19.9011000000 N         0.0000000000         0.0000000000      -137.1650530998       86.3698061937       13.2180445977
energy      -910.2923542411
charge 0
end
begin
comment generated by PY
lattice        40.0000000000         0.0000000000         0.0000000000
lattice         0.0000000000        40.0000000000         0.0000000000
lattice         0.0000000000         0.0000000000        40.0000000000
atom        21.9049000000       19.1567000000       20.5920000000 H         0.0000000000         0.0000000000       -92.6436766456       -3.2653090530     -107.0643818445
atom        20.0125000000       21.0433000000       20.0044000000 O         0.0000000000         0.0000000000        50.6553308815     -338.8753562888       -8.7618872135
atom        21.3302000000       19.0089000000       19.7780000000 O         0.0000000000         0.0000000000       -83.8441236559      100.1151432683      118.9829222909
atom        18.9415000000       19.1170000000       19.8355000000 O         0.0000000000         0.0000000000       317.7072039814      141.5846125672       28.4287230940
atom        20.0575000000       19.7642000000       19.9450000000 N         0.0000000000         0.0000000000      -191.8748945614      100.4416864458      -31.5849763269
energy      -903.3146652944
charge 0
end
begin
comment generated by PY
lattice        40.0000000000         0.0000000000         0.0000000000
lattice         0.0000000000        40.0000000000         0.0000000000
lattice         0.0000000000         0.0000000000        40.0000000000
atom        21.6549000000       19.4384000000       19.1053000000 H         0.0000000000         0.0000000000       -33.3012605589      -32.0974113838       72.4099599390
atom        20.0108000000       21.0404000000       20.0241000000 O         0.0000000000         0.0000000000        42.5518015208     -334.0259155028       21.4878581161
atom        21.3294000000       18.9803000000       19.8557000000 O         0.0000000000         0.0000000000      -116.5067045053      131.6060452100      -34.8118169934
atom        18.9781000000       19.1137000000       19.7573000000 O         0.0000000000         0.0000000000       290.3434668673      153.7633161353       94.2926114099
atom        20.0364000000       19.7838000000       20.0293000000 N         0.0000000000         0.0000000000      -183.0878102633       80.7536886019     -153.3785095321
energy      -916.4634036869
charge 0
end
begin
comment generated by PY
lattice        40.0000000000         0.0000000000         0.0000000000
lattice         0.0000000000        40.0000000000         0.0000000000
lattice         0.0000000000         0.0000000000        40.0000000000
atom        21.9589000000       19.7692000000       19.9875000000 H         0.0000000000         0.0000000000      -107.2920830592      -92.2690554113      -17.2010510052
atom        20.0500000000       20.9952000000       20.3167000000 O         0.0000000000         0.0000000000        15.3946474348     -324.1024374573     -100.9325113628
atom        21.2787000000       19.0346000000       19.8328000000 O         0.0000000000         0.0000000000       -91.3616321369      188.8948315753       27.6026582649
atom        18.9685000000       19.1241000000       19.5364000000 O         0.0000000000         0.0000000000       308.7504653519      151.9706628613      103.1928979459
atom        20.0388000000       19.7378000000       19.9105000000 N         0.0000000000         0.0000000000      -125.4913375906       75.5055753715      -12.6618938427
energy      -914.1849941743
charge 0
end
begin
comment generated by PY
lattice        40.0000000000         0.0000000000         0.0000000000
lattice         0.0000000000        40.0000000000         0.0000000000
lattice         0.0000000000         0.0000000000        40.0000000000
atom        21.3408000000       18.3528000000       20.3504000000 H         0.0000000000         0.0000000000       -28.0041923425       43.2505045914      -24.2508347216
atom        19.9504000000       20.8936000000       20.5306000000 O         0.0000000000         0.0000000000        64.3919184296     -296.1687499024     -179.8039829239
atom        21.3438000000       19.0660000000       19.7934000000 O         0.0000000000         0.0000000000      -133.0283617824       80.5982230109       26.4838001703
atom        19.0224000000       19.2169000000       19.3565000000 O         0.0000000000         0.0000000000       284.3026122198      145.5938766723      128.4754435013
atom        20.0607000000       19.8132000000       19.8907000000 N         0.0000000000         0.0000000000      -187.6624195852       26.7257456277       49.0956509133
energy      -914.8209215181
charge 0
end
begin
comment generated by PY
lattice        40.0000000000         0.0000000000         0.0000000000
lattice         0.0000000000        40.0000000000         0.0000000000
lattice         0.0000000000         0.0000000000        40.0000000000
atom        21.8474000000       19.7635000000       19.5554000000 H         0.0000000000         0.0000000000       -66.0191555610      -94.5146177665       42.1725261127
atom        19.9516000000       20.8837000000       20.5610000000 O         0.0000000000         0.0000000000        50.5335757192     -302.9334756612     -153.1236959710
atom        21.3192000000       18.9845000000       19.8331000000 O         0.0000000000         0.0000000000       -99.2598888146      193.2717002558      -22.3000497577
atom        19.0409000000       19.2827000000       19.2972000000 O         0.0000000000         0.0000000000       283.5655893941      100.9909686616      175.9444594761
atom        20.0300000000       19.7415000000       19.9352000000 N         0.0000000000         0.0000000000      -168.8198207376      103.1857245103      -42.6937398601
energy      -913.5168976074
charge 0
end
begin
comment generated by PY
lattice        40.0000000000         0.0000000000         0.0000000000
lattice         0.0000000000        40.0000000000         0.0000000000
lattice         0.0000000000         0.0000000000        40.0000000000
atom        21.9615000000       19.2342000000       20.5072000000 H         0.0000000000         0.0000000000       -94.2714695610       -1.7799260357      -75.9643850078
atom        19.9840000000       20.9339000000       20.4116000000 O         0.0000000000         0.0000000000        47.8473772144     -310.4713539950     -123.8995463938
atom        21.3362000000       19.0191000000       19.7940000000 O         0.0000000000         0.0000000000       -96.4471498407       88.0720307622       71.6133527651
atom        18.9784000000       19.2250000000       19.4531000000 O         0.0000000000         0.0000000000       314.6486019875      110.1532958345      110.7675057401
atom        20.0369000000       19.7486000000       19.9045000000 N         0.0000000000         0.0000000000      -171.7777567397      114.0259534339       17.4828128964
energy      -915.8330890572
charge 0
end
begin
comment generated by PY
lattice        40.0000000000         0.0000000000         0.0000000000
lattice         0.0000000000        40.0000000000         0.0000000000
lattice         0.0000000000         0.0000000000        40.0000000000
atom        21.3744000000       18.9766000000       18.8765000000 H         0.0000000000         0.0000000000       -11.5689548514        1.0363067367      122.2502366616
atom        19.9435000000       20.9415000000       20.4489000000 O         0.0000000000         0.0000000000        48.6923213356     -325.2366676565     -101.2378058548
atom        21.3616000000       18.9881000000       19.8561000000 O         0.0000000000         0.0000000000      -135.8269663145       87.7613856411      -90.9244474375
atom        19.0596000000       19.2576000000       19.3865000000 O         0.0000000000         0.0000000000       255.9447959329      102.4393282182      159.1341025614
atom        20.0034000000       19.7564000000       19.9835000000 N         0.0000000000         0.0000000000      -157.2419661026      133.9994170604      -89.2221859307
energy      -922.3628795586
charge 0
end
begin
comment generated by PY
lattice        40.0000000000         0.0000000000         0.0000000000
lattice         0.0000000000        40.0000000000         0.0000000000
lattice         0.0000000000         0.0000000000        40.0000000000
atom        21.8728000000       19.2512000000       20.4547000000 H         0.0000000000         0.0000000000       -57.1497550213       -1.8890583859      -49.5387714872
atom        19.9969000000       21.0103000000       20.2948000000 O         0.0000000000         0.0000000000        59.5662888868     -326.6561657900      -76.9692371875
atom        21.2984000000       18.9954000000       19.7756000000 O         0.0000000000         0.0000000000      -129.9305512899      111.1676711867       69.2922588871
atom        18.9798000000       19.1749000000       19.5565000000 O         0.0000000000         0.0000000000       313.3351895621      123.3378333727      100.2972312042
atom        20.0702000000       19.7443000000       19.9446000000 N         0.0000000000         0.0000000000      -185.8211451984       94.0395196164      -43.0817814166
energy      -913.1510083561
charge 0
end
begin
comment generated by PY
lattice        40.0000000000         0.0000000000         0.0000000000
lattice         0.0000000000        40.0000000000         0.0000000000
lattice         0.0000000000         0.0000000000        40.0000000000
atom        22.1186000000       19.5492000000       19.7630000000 H         0.0000000000         0.0000000000      -120.9858112862      -51.4608050985       14.0638140209
atom        20.0272000000       20.9782000000       20.3508000000 O         0.0000000000         0.0000000000        11.1949555625     -311.8338903568     -145.6349736912
atom        21.3089000000       18.9817000000       19.8505000000 O         0.0000000000         0.0000000000       -48.2600580670      138.6623251175      -19.8414543221
atom        18.9784000000       19.1412000000       19.5568000000 O         0.0000000000         0.0000000000       301.2389152920      177.9553452604       70.3262066623
atom        20.0075000000       19.8138000000       19.8441000000 N         0.0000000000         0.0000000000      -143.1880515014       46.6776020169       81.0865803907
energy      -915.7988906286
charge 0
end
begin
comment generated by PY
lattice        40.0000000000         0.0000000000         0.0000000000
lattice         0.0000000000        40.0000000000         0.0000000000
lattice         0.0000000000         0.0000000000        40.0000000000