begin
comment generated by PY
lattice        40.0000000000         0.0000000000         0.0000000000
lattice         0.0000000000        40.0000000000         0.0000000000
lattice         0.0000000000         0.0000000000        40.0000000000
atom        20.6044500000       18.8116500000       20.4330600000 H         0.0000000000         0.0000000000        -6.8072645325       51.2231872476     -109.6401710784
atom        19.8787200000       20.3042100000       19.7121700000 C         0.0000000000         0.0000000000      -204.0816484720      260.9626186702       33.2803824136
atom        20.5474700000       19.2227800000       19.5504200000 O         0.0000000000         0.0000000000       -54.2190664636       53.9696147150      123.1232437338
atom        19.1752200000       21.2925200000       19.8321500000 N         0.0000000000         0.0000000000       265.1283958109     -366.1598405002      -46.7736251965
energy      -812.6936396915
charge 0
end
begin
comment generated by PY
lattice        40.0000000000         0.0000000000         0.0000000000
lattice         0.0000000000        40.0000000000         0.0000000000
lattice         0.0000000000         0.0000000000        40.0000000000
atom        20.5644800000       18.7067400000       20.3235200000 H         0.0000000000         0.0000000000        -9.5213733744       75.5809622220      -98.5654434354
atom        19.8682400000       20.3088400000       19.7353000000 C         0.0000000000         0.0000000000      -159.1579254378      209.1134275651       26.0319664487
atom        20.5131100000       19.2649700000       19.5254700000 O         0.0000000000         0.0000000000       -31.6388877853        0.7729962648      107.9456975260
atom        19.2263400000       21.2478200000       19.8486500000 N         0.0000000000         0.0000000000       200.3240594922     -285.4933985630      -35.4235506004
energy      -847.4976927699
charge 0
end
begin
comment generated by PY
lattice        40.0000000000         0.0000000000         0.0000000000
lattice         0.0000000000        40.0000000000         0.0000000000
lattice         0.0000000000         0.0000000000        40.0000000000
atom        20.5851300000       18.5472800000       20.2119400000 H         0.0000000000         0.0000000000       -15.0426690802       95.9912557829      -81.6956569026
atom        19.8310700000       20.3360600000       19.7628700000 C         0.0000000000         0.0000000000      -105.3175964005      148.2967293740       11.3282912042
atom        20.5502100000       19.2052600000       19.4893900000 O         0.0000000000         0.0000000000       -79.6437609095       65.5856370371      106.5403822337
atom        19.2143600000       21.3041000000       19.8742000000 N         0.0000000000         0.0000000000       200.0653311471     -309.9286987532      -36.1561898803
energy      -824.8948477094
charge 0
end
begin
comment generated by PY
lattice        40.0000000000         0.0000000000         0.0000000000
lattice         0.0000000000        40.0000000000         0.0000000000
lattice         0.0000000000         0.0000000000        40.0000000000
atom        20.3955400000       18.6284700000       20.2230700000 H         0.0000000000         0.0000000000        26.0094783302       66.5204045200     -102.2052534830
atom        19.8152000000       20.2729200000       19.7858200000 C         0.0000000000         0.0000000000      -128.8966040544      289.0987675811       -4.2836627703
atom        20.5682800000       19.1957900000       19.4369100000 O         0.0000000000         0.0000000000      -121.6708328027       61.7026733302      152.2641409416
atom        19.2208600000       21.3632900000       19.9136900000 N         0.0000000000         0.0000000000       224.5312388966     -417.3132591497      -45.7673153130
energy      -785.8458307725
charge 0
end
begin
comment generated by PY
lattice        40.0000000000         0.0000000000         0.0000000000
lattice         0.0000000000        40.0000000000         0.0000000000
lattice         0.0000000000         0.0000000000        40.0000000000
atom        20.4282500000       18.4942200000       20.0510400000 H         0.0000000000         0.0000000000         2.5500209905      107.8316428275      -73.7560303049
atom        19.8013500000       20.2907500000       19.7603300000 C         0.0000000000         0.0000000000       -68.4234841978      176.8473160402       27.3837284411
atom        20.5153100000       19.2583800000       19.4393400000 O         0.0000000000         0.0000000000       -80.1980328506        8.7253973393      100.7914012395
atom        19.2909300000       21.2860600000       19.9450700000 N         0.0000000000         0.0000000000       146.0594096628     -293.3891284875      -54.3888672101
energy      -843.3527500754
charge 0
end
begin
comment generated by PY
lattice        40.0000000000         0.0000000000         0.0000000000
lattice         0.0000000000        40.0000000000         0.0000000000
lattice         0.0000000000         0.0000000000        40.0000000000
atom        20.4232600000       18.3569100000       19.8185700000 H         0.0000000000         0.0000000000       -10.9708394183      127.8345422460      -36.0561991935
atom        19.8303200000       20.2953300000       19.7199400000 C         0.0000000000         0.0000000000      -121.5145738905      216.8755033129       92.0843861275
atom        20.4902500000       19.2505700000       19.4264100000 O         0.0000000000         0.0000000000       -50.0841661980       -2.6817912313       48.6912574956
atom        19.2950700000       21.3008700000       20.0111000000 N         0.0000000000         0.0000000000       182.5881430351     -342.1296282838     -104.6974446668
energy      -826.7871973004
charge 0
end
begin
comment generated by PY
lattice        40.0000000000         0.0000000000         0.0000000000
lattice         0.0000000000        40.0000000000         0.0000000000
lattice         0.0000000000         0.0000000000        40.0000000000
atom        20.0665400000       18.5126000000       19.8989200000 H         0.0000000000         0.0000000000        61.6462652694       89.9269677655      -71.0092178396
atom        19.8306000000       20.2955200000       19.7336600000 C         0.0000000000         0.0000000000      -117.2138276910      258.4468975536       79.2969765893
atom        20.5188900000       19.2181600000       19.3703300000 O         0.0000000000         0.0000000000      -143.8340254153       32.7123585379      113.1391310686
atom        19.2876000000       21.3266100000       20.0576700000 N         0.0000000000         0.0000000000       199.4078374583     -381.0771149406     -121.4289191465
energy      -808.4677590358
charge 0
end
begin
comment generated by PY
lattice        40.0000000000         0.0000000000         0.0000000000
lattice         0.0000000000        40.0000000000         0.0000000000
lattice         0.0000000000         0.0000000000        40.0000000000
atom        19.9066300000       18.5314300000       19.7251000000 H         0.0000000000         0.0000000000        76.5161590315       88.9837130463      -52.0133300486
atom        19.8620700000       20.3340700000       19.7595700000 C         0.0000000000         0.0000000000       -97.4189497203      155.2464395547       49.0522464935
atom        20.4806400000       19.2313400000       19.3338500000 O         0.0000000000         0.0000000000      -147.6970583031       39.9420963837      102.8481784270
atom        19.3157300000       21.2771400000       20.0895500000 N         0.0000000000         0.0000000000       168.5985422985     -284.1772766099      -99.8823980650
energy      -836.6572203851
charge 0
end
begin
comment generated by PY
lattice        40.0000000000         0.0000000000         0.0000000000
lattice         0.0000000000        40.0000000000         0.0000000000
lattice         0.0000000000         0.0000000000        40.0000000000
atom        20.1115600000       18.3225900000       19.3819000000 H         0.0000000000         0.0000000000        17.4462840030      129.6474625167        7.5339041544
atom        19.9067900000       20.3292100000       19.7511600000 C         0.0000000000         0.0000000000      -174.6818741545      181.4721577773       91.9169665450
atom        20.4269900000       19.2413300000       19.3268100000 O         0.0000000000         0.0000000000       -52.3953382224       12.9889256025       32.1933818944
atom        19.3240300000       21.2848000000       20.1293200000 N         0.0000000000         0.0000000000       209.5890734792     -324.1486404318     -131.6674164153
energy      -821.9546046983
charge 0
end
begin
comment generated by PY
lattice        40.0000000000         0.0000000000         0.0000000000
lattice         0.0000000000        40.0000000000         0.0000000000
lattice         0.0000000000         0.0000000000        40.0000000000
atom        19.8715700000       18.4461200000       19.2219300000 H         0.0000000000         0.0000000000        62.4213884306      111.6504552073       13.1231240899
atom        19.8664100000       20.2948000000       19.7672100000 C         0.0000000000         0.0000000000      -133.4199929861      239.5232169158       96.0564832732
atom        20.4347900000       19.2469900000       19.2776000000 O         0.0000000000         0.0000000000      -112.0667652440        9.1678313883       39.7163361954
atom        19.3669000000       21.2990400000       20.1832100000 N         0.0000000000         0.0000000000       183.0374747200     -360.3757943334     -148.8426577844
energy      -820.1565941748
charge 0
end
begin
comment generated by PY
lattice        40.0000000000         0.0000000000         0.0000000000
lattice         0.0000000000        40.0000000000         0.0000000000
lattice         0.0000000000         0.0000000000        40.0000000000
atom        19.6479100000       18.6928100000       19.1695400000 H         0.0000000000         0.0000000000       108.0886926536       57.1906728331        1.7104254004
atom        19.7946200000       20.2985400000       19.7916700000 C         0.0000000000         0.0000000000        -8.6366009386      170.1602127945       53.2186153538
atom        20.4535300000       19.2476900000       19.2334700000 O         0.0000000000         0.0000000000      -200.4415374352       58.0730916880       65.3558690537
atom        19.4230400000       21.2774100000       20.2163900000 N         0.0000000000         0.0000000000       100.9994462403     -285.4325482945     -120.3224678957
energy      -834.6959443524
charge 0
end
begin
comment generated by PY
lattice        40.0000000000         0.0000000000         0.0000000000
lattice         0.0000000000        40.0000000000         0.0000000000
lattice         0.0000000000         0.0000000000        40.0000000000
atom        19.8701100000       18.5269600000       18.8488800000 H         0.0000000000         0.0000000000        51.4349424526      104.3058395674       52.8741879927
atom        19.8107500000       20.2758100000       19.7792700000 C         0.0000000000         0.0000000000       -65.4368561750      232.5250164351      101.1614607623
atom        20.4000100000       19.2637500000       19.2097800000 O         0.0000000000         0.0000000000      -109.4517459125       21.0692080259       18.9927305910
atom        19.4544900000       21.2904000000       20.2770100000 N         0.0000000000         0.0000000000       123.4698255047     -357.8928689245     -172.9962639733
energy      -822.1926109745
charge 0
end
begin
comment generated by PY
lattice        40.0000000000         0.0000000000         0.0000000000
lattice         0.0000000000        40.0000000000         0.0000000000
lattice         0.0000000000         0.0000000000        40.0000000000
atom        19.8911100000       18.6357400000       18.6293700000 H         0.0000000000         0.0000000000        37.7115639815       95.0598759421       75.1242688294
atom        19.8401300000       20.2837500000       19.7473300000 C         0.0000000000         0.0000000000       -94.0544404255      246.0309944512      151.5126293789
atom        20.3458300000       19.2821700000       19.1938000000 O         0.0000000000         0.0000000000       -67.4397662717        1.3788763536      -17.4591194918
atom        19.4897100000       21.2547700000       20.3383500000 N         0.0000000000         0.0000000000       123.7470061984     -342.4358011945     -209.1658960206
energy      -825.4598334113
charge 0
end
begin
comment generated by PY
lattice        40.0000000000         0.0000000000         0.0000000000
lattice         0.0000000000        40.0000000000         0.0000000000
lattice         0.0000000000         0.0000000000        40.0000000000
atom        19.5924900000       18.9917600000       18.5877900000 H         0.0000000000         0.0000000000       102.6405784977       26.4682768456       69.8174798199
atom        19.8232900000       20.3303500000       19.7495400000 C         0.0000000000         0.0000000000       -23.5602277592      152.5995890314      139.0759675890
atom        20.3589600000       19.2438300000       19.1540400000 O         0.0000000000         0.0000000000      -174.1101682985      103.2833380171       -5.2364571977
atom        19.5104800000       21.2331800000       20.3848700000 N         0.0000000000         0.0000000000        95.0179564676     -282.3759092859     -203.6661683093
energy      -830.7290262740
charge 0
end
begin
comment generated by PY
lattice        40.0000000000         0.0000000000         0.0000000000
lattice         0.0000000000        40.0000000000         0.0000000000
lattice         0.0000000000         0.0000000000        40.0000000000
atom        19.6502200000       19.0179900000       18.3906500000 H         0.0000000000         0.0000000000        81.5005391954       36.6763371511       95.3355371462
atom        19.8805100000       20.3289100000       19.7701900000 C         0.0000000000         0.0000000000       -87.1028032383      182.6792312405      153.3656624730
atom        20.3072600000       19.2383300000       19.0947100000 O         0.0000000000         0.0000000000      -128.2268740290      105.3858820551       -4.5338566407
atom        19.5163500000       21.2388300000       20.4490400000 N         0.0000000000         0.0000000000       133.8417440081     -324.7817753745     -244.2017493162
energy      -812.2018970396
charge 0
end
begin
comment generated by PY
lattice        40.0000000000         0.0000000000         0.0000000000
lattice         0.0000000000        40.0000000000         0.0000000000
lattice         0.0000000000         0.0000000000        40.0000000000
atom        19.7493000000       19.0787600000       18.2663000000 H         0.0000000000         0.0000000000        53.9408805602       45.5198931558      111.7920686860
atom        19.9243800000       20.2887600000       19.7833300000 C         0.0000000000         0.0000000000      -130.2633293519      238.0182533083      163.3020414541
atom        20.2382900000       19.3065500000       19.0866600000 O         0.0000000000         0.0000000000       -61.5494675480       31.3486333022      -42.8944335833
atom        19.5504600000       21.1909700000       20.4558300000 N         0.0000000000         0.0000000000       137.8994892102     -314.9066885642     -232.2302664803
energy      -827.5570085529
charge 0
end
begin
comment generated by PY
lattice        40.0000000000         0.0000000000         0.0000000000
lattice         0.0000000000        40.0000000000         0.0000000000
lattice         0.0000000000         0.0000000000        40.0000000000
atom        19.6664300000       19.4633100000       18.2343600000 H         0.0000000000         0.0000000000        74.8650545302      -25.1362398219      104.4501847396
atom        19.8975100000       20.3007300000       19.8124100000 C         0.0000000000         0.0000000000       -62.8086540511      162.7301176370      125.8003233124
atom        20.2243900000       19.2900100000       19.0332500000 O         0.0000000000         0.0000000000      -109.8508464000      137.0097036278      -17.9873247081
atom        19.5953100000       21.1721300000       20.4942100000 N         0.0000000000         0.0000000000        97.8059225289     -274.6054573180     -212.2953377185
energy      -835.8479808752
charge 0
end
begin
comment generated by PY
lattice        40.0000000000         0.0000000000         0.0000000000
lattice         0.0000000000        40.0000000000         0.0000000000
lattice         0.0000000000         0.0000000000        40.0000000000
atom        19.8119600000       19.4349600000       18.0649100000 H         0.0000000000         0.0000000000        44.8856992581       -8.1419852426      122.8918116151
atom        19.8778200000       20.2929700000       19.8360000000 C         0.0000000000         0.0000000000       -52.5630044029      194.7900754044      127.5879901315
atom        20.2003700000       19.2754400000       18.9586300000 O         0.0000000000         0.0000000000       -82.6538472299      140.5813478912        9.0960520755
atom        19.6292600000       21.1974700000       20.5713400000 N         0.0000000000         0.0000000000        90.2764527548     -327.1866993126     -259.5779753925
energy      -806.2807735850
charge 0
end
begin
comment generated by PY
lattice        40.0000000000         0.0000000000         0.0000000000
lattice         0.0000000000        40.0000000000         0.0000000000
lattice         0.0000000000         0.0000000000        40.0000000000
atom        19.9433800000       19.5320700000       18.0298200000 H         0.0000000000         0.0000000000        20.9888926578      -12.4670015185      122.9604695894
atom        19.8627100000       20.2697700000       19.7972200000 C         0.0000000000         0.0000000000       -30.9725641913      226.5274641323      188.9237162705
atom        20.1488900000       19.3386700000       18.9640900000 O         0.0000000000         0.0000000000       -49.2119864100      100.9314331625      -25.7840097653
atom        19.6916600000       21.1381800000       20.6008800000 N         0.0000000000         0.0000000000        59.2000855688     -314.9684899586     -286.1114830952
energy      -821.9347496771
charge 0
end
begin
comment generated by PY
lattice        40.0000000000         0.0000000000         0.0000000000
lattice         0.0000000000        40.0000000000         0.0000000000
lattice         0.0000000000         0.0000000000        40.0000000000
atom        19.9766900000       19.7896100000       18.0896600000 H         0.0000000000         0.0000000000        17.4385270607      -59.7290551153      104.6801541192
atom        19.8526400000       20.3193700000       19.7795300000 C         0.0000000000         0.0000000000         4.7297699708      108.8539058922      169.5637475199
atom        20.1079600000       19.3546200000       18.9529700000 O         0.0000000000         0.0000000000       -47.6801395603      158.9989769859      -30.5113516626
atom        19.7446900000       21.0590000000       20.6245000000 N         0.0000000000         0.0000000000        25.5205132949     -208.0959628631     -243.7446112818
energy      -846.7566515789
charge 0
end
begin
comment generated by PY
lattice        40.0000000000         0.0000000000         0.0000000000
lattice         0.0000000000        40.0000000000         0.0000000000
lattice         0.0000000000         0.0000000000        40.0000000000
atom        20.1042700000       19.6264600000       17.9468600000 H         0.0000000000         0.0000000000        -8.1202833916      -15.9443318810      121.8149678555
atom        19.8696300000       20.3321200000       19.7858600000 C         0.0000000000         0.0000000000        -4.2075575761      132.2157537115      195.7878988754
atom        20.0644500000       19.3551500000       18.8797900000 O         0.0000000000         0.0000000000       -19.6720706806      137.6000336198        8.0504615688
atom        19.7707400000       21.0591100000       20.7128900000 N         0.0000000000         0.0000000000        31.9667705802     -253.8185011000     -325.6785795997
energy      -817.5236326760
charge 0
end
begin
comment generated by PY
lattice        40.0000000000         0.0000000000         0.0000000000
lattice         0.0000000000        40.0000000000         0.0000000000
lattice         0.0000000000         0.0000000000        40.0000000000
atom        20.2247100000       19.7122000000       17.9525000000 H         0.0000000000         0.0000000000       -28.1349082986      -24.1799287772      118.0495354683
atom        19.9233400000       20.3133300000       19.7850000000 C         0.0000000000         0.0000000000       -36.2954689869      153.5277832982      232.1255429628
atom        19.9926300000       19.3991700000       18.8449600000 O         0.0000000000         0.0000000000        17.6940151254      127.3820851804        3.7128532945
atom        19.7981400000       21.0188100000       20.7530200000 N         0.0000000000         0.0000000000        46.7226180735     -256.7572515738     -353.8729343988
energy      -813.7780514083
charge 0
end
begin
comment generated by PY
lattice        40.0000000000         0.0000000000         0.0000000000
lattice         0.0000000000        40.0000000000         0.0000000000
lattice         0.0000000000         0.0000000000        40.0000000000
atom        20.2981200000       19.9851100000       18.1046600000 H         0.0000000000         0.0000000000       -46.4802289845      -72.9583992506       88.7752929449
atom        19.9547400000       20.3018600000       19.8134300000 C         0.0000000000         0.0000000000       -48.5556679848       92.3639126507      165.8502269008
atom        19.9327100000       19.4505700000       18.8385100000 O         0.0000000000         0.0000000000        55.5604226997      160.3754360020        1.5940927339
atom        19.8344200000       20.9504100000       20.7251400000 N         0.0000000000         0.0000000000        39.4844831860     -179.8026101631     -256.2142470169
energy      -847.4842284044
charge 0
end
begin
comment generated by PY
lattice        40.0000000000         0.0000000000         0.0000000000
lattice         0.0000000000        40.0000000000         0.0000000000
lattice         0.0000000000         0.0000000000        40.0000000000
atom        20.3354700000       19.8667400000       17.9741600000 H         0.0000000000         0.0000000000       -53.1727170997      -35.6183756239      112.2254899129
atom        19.9583900000       20.2502600000       19.8468500000 C         0.0000000000         0.0000000000       -35.8757948902      164.7518835802      177.9678324711
atom        19.8900900000       19.4984500000       18.7669800000 O         0.0000000000         0.0000000000        57.9690550439      114.9892899270       28.5840236736
atom        19.8773300000       20.9484200000       20.7875300000 N         0.0000000000         0.0000000000        31.0827084834     -244.1048798375     -318.7605187640
energy      -824.6629938717
charge 0
end
begin
comment generated by PY
lattice        40.0000000000         0.0000000000         0.0000000000
lattice         0.0000000000        40.0000000000         0.0000000000
lattice         0.0000000000         0.0000000000        40.0000000000
atom        20.4592500000       19.8671500000       18.0055100000 H         0.0000000000         0.0000000000       -76.8749008199      -34.5035484441      102.9541422031
atom        19.9321500000       20.2347400000       19.8508800000 C         0.0000000000         0.0000000000         1.2474752398      177.2618512966      210.4520696853
atom        19.8453100000       19.5338500000       18.7068800000 O         0.0000000000         0.0000000000        79.9933272951      115.5823621257       53.2242282775
atom        19.9421700000       20.9212500000       20.8505200000 N         0.0000000000         0.0000000000        -4.3719705182     -258.3740876830     -366.6443685241
energy      -803.2465505939
charge 0
end
begin
comment generated by PY
lattice        40.0000000000         0.0000000000         0.0000000000
lattice         0.0000000000        40.0000000000         0.0000000000
lattice         0.0000000000         0.0000000000        40.0000000000
atom        20.5628400000       19.9472400000       18.1940900000 H         0.0000000000         0.0000000000      -100.9042020258      -48.4356492668       69.0630763013
atom        19.9076100000       20.2596700000       19.8388900000 C         0.0000000000         0.0000000000        21.1562763458      103.6953854519      183.4747184650
atom        19.8084800000       19.5939700000       18.7286000000 O         0.0000000000         0.0000000000       109.9763007839      116.3321188110       43.7100944290
atom        19.9979200000       20.8254400000       20.8225200000 N         0.0000000000         0.0000000000       -30.2118176304     -171.6065443523     -296.2548847249
energy      -841.6299418932
charge 0
end
begin
comment generated by PY
lattice        40.0000000000         0.0000000000         0.0000000000
lattice         0.0000000000        40.0000000000         0.0000000000
lattice         0.0000000000         0.0000000000        40.0000000000
atom        20.5249600000       19.7385100000       18.0688300000 H         0.0000000000         0.0000000000       -88.9748547908       -0.3196221600       94.7905578179
atom        19.8760100000       20.2761800000       19.8282700000 C         0.0000000000         0.0000000000        78.7365030461       92.9667762524      215.0115491015
atom        19.7835200000       19.6490400000       18.7030600000 O         0.0000000000         0.0000000000        78.9156579141       66.7172599235       34.5953010164
atom        20.0562500000       20.7632500000       20.8697700000 N         0.0000000000         0.0000000000       -68.6734089367     -159.3228564532     -344.3918736171
energy      -831.7752653421
charge 0
end
begin
comment generated by PY
lattice        40.0000000000         0.0000000000         0.0000000000
lattice         0.0000000000        40.0000000000         0.0000000000
lattice         0.0000000000         0.0000000000        40.0000000000
atom        20.5793000000       19.7073700000       18.1612000000 H         0.0000000000         0.0000000000      -107.9519738843       -0.4469179111       65.6371716080
atom        19.9107200000       20.2911600000       19.8241700000 C         0.0000000000         0.0000000000        56.0670922956       74.8418544312      263.8710359249
atom        19.7198100000       19.6769700000       18.6367800000 O         0.0000000000         0.0000000000       124.3099930235       80.8310878078       85.2547952384
atom        20.0954100000       20.7207000000       20.9424200000 N         0.0000000000         0.0000000000       -72.3940413317     -155.2446468581     -414.7815669381
energy      -804.4372426386
charge 0
end
begin
comment generated by PY
lattice        40.0000000000         0.0000000000         0.0000000000
lattice         0.0000000000        40.0000000000         0.0000000000
lattice         0.0000000000         0.0000000000        40.0000000000
atom        20.5375800000       19.6691400000       18.2114200000 H         0.0000000000         0.0000000000      -111.0837113355       11.5266642595       55.4945494622
atom        19.9667200000       20.2670600000       19.8331000000 C         0.0000000000         0.0000000000         8.9926757002       60.2968483961      215.7849035960
atom        19.6687400000       19.7607200000       18.6550500000 O         0.0000000000         0.0000000000       146.1868721795       47.2565831946       74.4160353918
atom        20.1087000000       20.6484000000       20.9103000000 N         0.0000000000         0.0000000000       -44.1004408961     -119.1078607500     -345.6943360613
energy      -835.7083916754
charge 0
end
begin
comment generated by PY
lattice        40.0000000000         0.0000000000         0.0000000000
lattice         0.0000000000        40.0000000000         0.0000000000
lattice         0.0000000000         0.0000000000        40.0000000000
atom        20.2832100000       19.5104300000       18.0042400000 H         0.0000000000         0.0000000000       -61.4077810932       44.1658358421       97.0434403060
atom        19.9841100000       20.2193300000       19.8389500000 C         0.0000000000         0.0000000000        25.8722964377       81.0938087721      211.4006051508
atom        19.6521600000       19.8416300000       18.6574200000 O         0.0000000000         0.0000000000        82.2915591166        1.0603871124       38.8979539531
atom        20.1309000000       20.6082100000       20.9173700000 N         0.0000000000         0.0000000000       -46.7108527265     -126.3431747297     -347.3583338228
energy      -836.4754828191
charge 0
end
begin
comment generated by PY
lattice        40.0000000000         0.0000000000         0.0000000000
lattice         0.0000000000        40.0000000000         0.0000000000
lattice         0.0000000000         0.0000000000        40.0000000000
atom        20.2917900000       19.4050700000       18.1504100000 H         0.0000000000         0.0000000000       -86.1813619961       64.3487056072       61.1943769588
atom        20.0181800000       20.1693700000       19.8384000000 C         0.0000000000         0.0000000000        -1.0073091208      124.4270471372      264.5277936066
atom        19.5931300000       19.9150900000       18.6080500000 O         0.0000000000         0.0000000000       137.7575216460      -36.7127285565       84.6707060012
atom        20.1685200000       20.5746500000       20.9638100000 N         0.0000000000         0.0000000000       -50.5694801034     -152.0685968697     -410.3594001958
energy      -811.6738843847