begin
comment generated by PY
lattice        40.0000000000         0.0000000000         0.0000000000
lattice         0.0000000000        40.0000000000         0.0000000000
lattice         0.0000000000         0.0000000000        40.0000000000
atom        16.3097000000        4.7900800000        3.5850900000 H         0.0000000000         0.0000000000      -103.6500418996      -76.0984019438      -20.9249314748
atom        14.3664000000        3.0492000000        2.0635800000 O         0.0000000000         0.0000000000       295.6269316538      216.9672896025       67.4795524494
atom        15.4982000000        4.2365000000        3.5645600000 O         0.0000000000         0.0000000000        63.2678727288       -3.7963619087     -163.1501710619
atom        15.3915000000        3.7830700000        2.2322100000 N         0.0000000000         0.0000000000      -255.2438624830     -137.0720457500      116.5959500874
energy      -715.1187502236
charge 0
end
begin
comment generated by PY
lattice        40.0000000000         0.0000000000         0.0000000000
lattice         0.0000000000        40.0000000000         0.0000000000
lattice         0.0000000000         0.0000000000        40.0000000000
atom        15.0584000000        4.1025600000        4.2601800000 H         0.0000000000         0.0000000000        77.5127119547        9.1008439751     -109.6385227707
atom        14.7009000000        2.8394800000        2.0020000000 O         0.0000000000         0.0000000000        60.6242636206      344.9786930834      110.7166582587
atom        15.6708000000        4.2258300000        3.4886600000 O         0.0000000000         0.0000000000      -177.3531006026      -40.9115302644      -46.6444472921
atom        14.9012000000        4.0840500000        2.3411000000 N         0.0000000000         0.0000000000        39.2157250273     -313.1684067941       45.5662348646
energy      -689.5688201226
charge 0
end
begin
comment generated by PY
lattice        40.0000000000         0.0000000000         0.0000000000
lattice         0.0000000000        40.0000000000         0.0000000000
lattice         0.0000000000         0.0000000000        40.0000000000
atom        15.7640000000        5.2058600000        3.4949500000 H         0.0000000000         0.0000000000       -33.5175279692     -142.4419714563        0.9666195122
atom        14.9003000000        3.0020300000        1.7842400000 O         0.0000000000         0.0000000000       -71.2689428800      238.9688170863      266.1167096074
atom        15.6924000000        4.2005900000        3.4977500000 O         0.0000000000         0.0000000000       -89.4788405210       70.5536270113     -116.0484830583
atom        14.5983000000        3.8483200000        2.6342200000 N         0.0000000000         0.0000000000       194.2652113701     -167.0805726412     -151.0351660613
energy      -709.9626802513
charge 0
end
begin
comment generated by PY
lattice        40.0000000000         0.0000000000         0.0000000000
lattice         0.0000000000        40.0000000000         0.0000000000
lattice         0.0000000000         0.0000000000        40.0000000000
atom        15.9721000000        4.9855500000        3.0895000000 H         0.0000000000         0.0000000000       -30.4783803720      -62.5648323882       33.9403831823
atom        14.9280000000        3.0082000000        1.7605300000 O         0.0000000000         0.0000000000       -98.3936227576      242.6812239244      273.3510129353
atom        15.6828000000        4.2134200000        3.5123900000 O         0.0000000000         0.0000000000      -103.2592118868        7.5331884579     -140.2734472981
atom        14.5627000000        3.8423500000        2.6735700000 N         0.0000000000         0.0000000000       232.1308150164     -187.6503030546     -167.0175488195
energy      -693.0687449141
charge 0
end
begin
comment generated by PY
lattice        40.0000000000         0.0000000000         0.0000000000
lattice         0.0000000000        40.0000000000         0.0000000000
lattice         0.0000000000         0.0000000000        40.0000000000
atom        16.3975000000        3.9865400000        3.1508800000 H         0.0000000000         0.0000000000       -32.5421216605       -7.7967021951       10.3811500603
atom        14.8641000000        2.9082500000        1.9524200000 O         0.0000000000         0.0000000000       -50.0012991235      320.8535837526      124.4424004422
atom        15.6189000000        4.2132600000        3.5248600000 O         0.0000000000         0.0000000000       -86.1550076024       -5.0884570176     -142.4080682236
atom        14.6785000000        4.0281100000        2.4356300000 N         0.0000000000         0.0000000000       168.6987283864     -307.9687245400        7.5846177211
energy      -720.3544538830
charge 0
end
begin
comment generated by PY
lattice        40.0000000000         0.0000000000         0.0000000000
lattice         0.0000000000        40.0000000000         0.0000000000
lattice         0.0000000000         0.0000000000        40.0000000000
atom        15.5983000000        5.1762200000        3.8324300000 H         0.0000000000         0.0000000000        -5.9085883764     -157.1451411557      -62.2399162813
atom        14.9269000000        3.0031900000        1.8204200000 O         0.0000000000         0.0000000000       -99.6985627003      243.1246431030      241.1092465353
atom        15.6973000000        4.1799600000        3.4384600000 O         0.0000000000         0.0000000000      -137.0376554132       99.7618783261      -50.6614993633
atom        14.5741000000        3.8726900000        2.6365300000 N         0.0000000000         0.0000000000       242.6449764899     -185.7418802735     -128.2078308908
energy      -708.1634192490
charge 0
end
begin
comment generated by PY
lattice        40.0000000000         0.0000000000         0.0000000000
lattice         0.0000000000        40.0000000000         0.0000000000
lattice         0.0000000000         0.0000000000        40.0000000000
atom        16.4441000000        3.7130800000        3.2138100000 H         0.0000000000         0.0000000000      -115.3137782655       76.7289078943       12.6012055503
atom        14.9680000000        3.1047300000        1.7573800000 O         0.0000000000         0.0000000000      -135.9752363750      161.1116965508      276.9627065751
atom        15.6493000000        4.2960900000        3.4369900000 O         0.0000000000         0.0000000000       -55.2751895142     -145.6128390578      -91.2886395378
atom        14.5216000000        3.7284500000        2.7544400000 N         0.0000000000         0.0000000000       306.5647272153      -92.2280653873     -198.2755725876
energy      -708.1156883564
charge 0
end
begin
comment generated by PY
lattice        40.0000000000         0.0000000000         0.0000000000
lattice         0.0000000000        40.0000000000         0.0000000000
lattice         0.0000000000         0.0000000000        40.0000000000
atom        16.3798000000        3.9747100000        3.0625200000 H         0.0000000000         0.0000000000       -43.5654942946       14.7052466195       18.1989761285
atom        14.9346000000        3.0673400000        1.7340100000 O         0.0000000000         0.0000000000       -85.7811013288      196.9837845423      286.2830352458
atom        15.6443000000        4.2965500000        3.4945000000 O         0.0000000000         0.0000000000      -102.1416148470      -97.7910720136     -135.2868963147
atom        14.5701000000        3.7519700000        2.7262400000 N         0.0000000000         0.0000000000       231.4887104704     -113.8982591482     -169.1961150596
energy      -721.7354314296
charge 0
end
begin
comment generated by PY
lattice        40.0000000000         0.0000000000         0.0000000000
lattice         0.0000000000        40.0000000000         0.0000000000
lattice         0.0000000000         0.0000000000        40.0000000000
atom        16.5030000000        3.9740600000        3.3489700000 H         0.0000000000         0.0000000000       -85.2242754652       23.3948879246       -6.1295232092
atom        14.8969000000        3.0546900000        1.7004000000 O         0.0000000000         0.0000000000       -49.5121870990      195.3541808680      302.7289344385
atom        15.6356000000        4.3181800000        3.5022000000 O         0.0000000000         0.0000000000       -57.3250296889     -115.7512051297     -116.4705621501
atom        14.6143000000        3.7417500000        2.7353800000 N         0.0000000000         0.0000000000       192.0618922531     -102.9972406023     -180.1292260187
energy      -712.5738221873
charge 0
end
begin
comment generated by PY
lattice        40.0000000000         0.0000000000         0.0000000000
lattice         0.0000000000        40.0000000000         0.0000000000
lattice         0.0000000000         0.0000000000        40.0000000000
atom        15.5112000000        5.1756600000        3.6754400000 H         0.0000000000         0.0000000000        11.0128833350     -147.7028577446      -25.7952887645
atom        14.8998000000        2.9828200000        1.7788500000 O         0.0000000000         0.0000000000       -66.9298616774      249.0518101182      266.4270023576
atom        15.6956000000        4.1949900000        3.4713800000 O         0.0000000000         0.0000000000      -152.4022327631       80.7141091917      -98.9730826759
atom        14.6133000000        3.8788300000        2.6576300000 N         0.0000000000         0.0000000000       208.3199111054     -182.0632615653     -141.6590309171
energy      -705.6355126648
charge 0
end
begin
comment generated by PY
lattice        40.0000000000         0.0000000000         0.0000000000
lattice         0.0000000000        40.0000000000         0.0000000000
lattice         0.0000000000         0.0000000000        40.0000000000
atom        15.3581000000        4.5132300000        4.3896900000 H         0.0000000000         0.0000000000        38.8860644687      -33.8411723858     -153.9822648938
atom        14.8982000000        2.9493600000        1.8198200000 O         0.0000000000         0.0000000000       -78.5855391907      295.6608595789      225.7541765756
atom        15.7282000000        4.2308300000        3.4467500000 O         0.0000000000         0.0000000000      -173.2005628505      -16.8382753679       26.6003260710
atom        14.5888000000        3.9234300000        2.5879400000 N         0.0000000000         0.0000000000       212.8998375725     -244.9814118253      -98.3726377528
energy      -688.6976157639
charge 0
end
begin
comment generated by PY
lattice        40.0000000000         0.0000000000         0.0000000000
lattice         0.0000000000        40.0000000000         0.0000000000
lattice         0.0000000000         0.0000000000        40.0000000000
atom        16.3112000000        4.2997200000        2.8481100000 H         0.0000000000         0.0000000000       -50.0736010968      -19.9525578288       47.0867565985
atom        14.9551000000        3.0498800000        1.7468300000 O         0.0000000000         0.0000000000      -104.9112256026      217.4143147630      266.3876643101
atom        15.6444000000        4.2463200000        3.4885600000 O         0.0000000000         0.0000000000      -111.2568594846      -43.0247325619     -161.5785524739
atom        14.5515000000        3.8061000000        2.7336900000 N         0.0000000000         0.0000000000       266.2423861840     -154.4369474328     -151.8957684348
energy      -707.0985485044
charge 0
end
begin
comment generated by PY
lattice        40.0000000000         0.0000000000         0.0000000000
lattice         0.0000000000        40.0000000000         0.0000000000
lattice         0.0000000000         0.0000000000        40.0000000000
atom        16.2589000000        3.6498500000        2.9787100000 H         0.0000000000         0.0000000000       -70.1625214762       87.8323980821       50.9638846055
atom        14.9785000000        3.1019400000        1.7649100000 O         0.0000000000         0.0000000000      -118.3403000182      165.7987377552      272.1187224613
atom        15.6336000000        4.2822900000        3.4370800000 O         0.0000000000         0.0000000000       -88.6307050908     -170.5488601214     -149.6240843097
atom        14.5408000000        3.7519300000        2.7625300000 N         0.0000000000         0.0000000000       277.1333265851      -83.0822526554     -173.4585227571
energy      -718.2158353630
charge 0
end
begin
comment generated by PY
lattice        40.0000000000         0.0000000000         0.0000000000
lattice         0.0000000000        40.0000000000         0.0000000000
lattice         0.0000000000         0.0000000000        40.0000000000
atom        16.3120000000        4.4586100000        2.9433200000 H         0.0000000000         0.0000000000        -9.6036831214      -20.5768159384       -7.8304291817
atom        14.9505000000        3.0488000000        1.7588100000 O         0.0000000000         0.0000000000      -116.5956247678      222.3093109230      262.0924462568
atom        15.6599000000        4.2383600000        3.4909100000 O         0.0000000000         0.0000000000      -152.0305043245      -34.7913335676      -92.7044674573
atom        14.5390000000        3.8050800000        2.7105200000 N         0.0000000000         0.0000000000       278.2297122138     -166.9407614170     -161.5574496177
energy      -706.9877050786
charge 0
end
begin
comment generated by PY
lattice        40.0000000000         0.0000000000         0.0000000000
lattice         0.0000000000        40.0000000000         0.0000000000
lattice         0.0000000000         0.0000000000        40.0000000000
atom        16.5836000000        4.1111900000        3.2557100000 H         0.0000000000         0.0000000000      -117.3145647036        7.1429157048        6.5267447204
atom        14.9150000000        3.0537000000        1.7140800000 O         0.0000000000         0.0000000000       -91.1925112589      203.0878565174      295.4000564248
atom        15.6572000000        4.3039400000        3.5049500000 O         0.0000000000         0.0000000000       -42.7202766839      -80.9649385950     -110.5269968972
atom        14.5631000000        3.7493500000        2.7232700000 N         0.0000000000         0.0000000000       251.2272257069     -129.2656336273     -191.3989811874
energy      -699.1892541278
charge 0
end
begin
comment generated by PY
lattice        40.0000000000         0.0000000000         0.0000000000
lattice         0.0000000000        40.0000000000         0.0000000000
lattice         0.0000000000         0.0000000000        40.0000000000
atom        16.4346000000        4.0008000000        3.0666200000 H         0.0000000000         0.0000000000       -70.5046076930       13.2352820359       20.7368166908
atom        14.9429000000        3.0706800000        1.7408600000 O         0.0000000000         0.0000000000      -105.3700857224      196.9484842852      280.4547788984
atom        15.6506000000        4.2800800000        3.4826800000 O         0.0000000000         0.0000000000       -94.7395505297      -86.0100496285     -126.9975104224
atom        14.5495000000        3.7651000000        2.7316300000 N         0.0000000000         0.0000000000       270.6141208845     -124.1731166925     -174.1938851669
energy      -715.6527053213
charge 0
end
begin
comment generated by PY
lattice        40.0000000000         0.0000000000         0.0000000000
lattice         0.0000000000        40.0000000000         0.0000000000
lattice         0.0000000000         0.0000000000        40.0000000000
atom        15.4721000000        4.3680000000        4.4036100000 H         0.0000000000         0.0000000000        23.9867695052       -7.6127132641     -146.0223021868
atom        14.9028000000        3.1352600000        1.6385000000 O         0.0000000000         0.0000000000       -91.0233988139      151.3500143571      346.3829715253
atom        15.7383000000        4.3172000000        3.4203300000 O         0.0000000000         0.0000000000      -171.4770550032      -86.1806075859       50.1329469809
atom        14.5638000000        3.6226500000        2.8243500000 N         0.0000000000         0.0000000000       238.5129843118      -57.5566265676     -250.4937163195
energy      -674.3676185819
charge 0
end
begin
comment generated by PY
lattice        40.0000000000         0.0000000000         0.0000000000
lattice         0.0000000000        40.0000000000         0.0000000000
lattice         0.0000000000         0.0000000000        40.0000000000
atom        15.8173000000        3.7932000000        4.2658300000 H         0.0000000000         0.0000000000       -33.9092969903       82.0170246469     -123.3131935801
atom        14.9308000000        3.1264100000        1.6802100000 O         0.0000000000         0.0000000000      -105.8849120910      166.8693416115      318.8147565980
atom        15.6946000000        4.3191400000        3.3941200000 O         0.0000000000         0.0000000000      -112.9011916095     -162.8089571524       37.1123593310
atom        14.5572000000        3.6716000000        2.8164700000 N         0.0000000000         0.0000000000       252.6950006908      -86.0772091060     -232.6132723489
energy      -679.4818957437
charge 0
end
begin
comment generated by PY
lattice        40.0000000000         0.0000000000         0.0000000000
lattice         0.0000000000        40.0000000000         0.0000000000
lattice         0.0000000000         0.0000000000        40.0000000000
atom        15.9360000000        5.1167400000        3.2560000000 H         0.0000000000         0.0000000000       -53.9305247981     -120.2621034069       29.3116668639
atom        14.9088000000        3.0193600000        1.7845100000 O         0.0000000000         0.0000000000       -68.9331215495      227.2951498617      264.4535832602
atom        15.6661000000        4.1947700000        3.4851800000 O         0.0000000000         0.0000000000       -69.5394836076       51.4678978923     -138.7667624605
atom        14.6063000000        3.8415200000        2.6653500000 N         0.0000000000         0.0000000000       192.4033299551     -158.5005443472     -154.9987876635
energy      -714.7088375347
charge 0
end
begin
comment generated by PY
lattice        40.0000000000         0.0000000000         0.0000000000
lattice         0.0000000000        40.0000000000         0.0000000000
lattice         0.0000000000         0.0000000000        40.0000000000
atom        16.4289000000        3.7425200000        3.4516200000 H         0.0000000000         0.0000000000       -84.5537123992       49.6377141676      -22.1729033241
atom        14.9392000000        3.0924900000        1.7302300000 O         0.0000000000         0.0000000000      -116.6887483014      172.1009197503      296.9332301155
atom        15.6661000000        4.3107300000        3.4548100000 O         0.0000000000         0.0000000000       -75.3813477842     -119.9303645558      -63.4379216046
atom        14.5364000000        3.7236000000        2.7481300000 N         0.0000000000         0.0000000000       276.6235315454     -101.8079693621     -211.3226651868
energy      -705.5154468571
charge 0
end
begin
comment generated by PY
lattice        40.0000000000         0.0000000000         0.0000000000
lattice         0.0000000000        40.0000000000         0.0000000000
lattice         0.0000000000         0.0000000000        40.0000000000
atom        16.2927000000        3.5715100000        3.7612200000 H         0.0000000000         0.0000000000       -91.5615821591      108.6301478070      -61.5843242987
atom        14.9146000000        3.0915400000        1.7010800000 O         0.0000000000         0.0000000000       -76.5385891525      171.6157654331      314.4805145910
atom        15.6579000000        4.3349800000        3.4500400000 O         0.0000000000         0.0000000000       -42.5153990438     -194.6853288786      -35.1188791251
atom        14.5837000000        3.7091900000        2.7647600000 N         0.0000000000         0.0000000000       210.6155703554      -85.5601843615     -217.7776342278
energy      -691.4286444974
charge 0
end
begin
comment generated by PY
lattice        40.0000000000         0.0000000000         0.0000000000
lattice         0.0000000000        40.0000000000         0.0000000000
lattice         0.0000000000         0.0000000000        40.0000000000
atom        15.7625000000        5.1372900000        3.3231000000 H         0.0000000000         0.0000000000       -26.6214768466     -104.0979837664       25.8814806563
atom        14.9063000000        2.9988400000        1.7705500000 O         0.0000000000         0.0000000000       -71.9791436348      237.8915812829      274.6247008981
atom        15.6814000000        4.1988000000        3.4901700000 O         0.0000000000         0.0000000000      -105.7322474861       37.7630428814     -141.1696864194
atom        14.6042000000        3.8589000000        2.6708100000 N         0.0000000000         0.0000000000       204.3333449069     -171.5562403979     -159.3369951349
energy      -706.7893940678
charge 0
end
begin
comment generated by PY
lattice        40.0000000000         0.0000000000         0.0000000000
lattice         0.0000000000        40.0000000000         0.0000000000
lattice         0.0000000000         0.0000000000        40.0000000000
atom        15.5092000000        5.0212700000        4.0465900000 H         0.0000000000         0.0000000000         7.6585393871     -110.9506008268      -85.8605591971
atom        14.8907000000        2.9434700000        1.7650500000 O         0.0000000000         0.0000000000       -73.1747324225      277.9088324676      261.2502334940
atom        15.7314000000        4.2223600000        3.4848300000 O         0.0000000000         0.0000000000      -151.3798654407       41.6794030321      -48.5441717481
atom        14.5830000000        3.9035400000        2.6315200000 N         0.0000000000         0.0000000000       216.8964584760     -208.6377346729     -126.8458794882
energy      -678.3318349679
charge 0
end
begin
comment generated by PY
lattice        40.0000000000         0.0000000000         0.0000000000
lattice         0.0000000000        40.0000000000         0.0000000000
lattice         0.0000000000         0.0000000000        40.0000000000
atom        15.4027000000        4.4780100000        4.2856900000 H         0.0000000000         0.0000000000         8.7666701260      -10.4521883686      -78.4857244774
atom        14.8881000000        2.9620400000        1.8300700000 O         0.0000000000         0.0000000000       -82.3499618637      295.4349723106      220.6958324003
atom        15.7425000000        4.2286800000        3.4614700000 O         0.0000000000         0.0000000000      -135.2526940329      -35.6677448107      -41.8204672389
atom        14.5808000000        3.9139100000        2.5668300000 N         0.0000000000         0.0000000000       208.8357857707     -249.3147351313     -100.3896406839
energy      -711.0607375969
charge 0
end
begin
comment generated by PY
lattice        40.0000000000         0.0000000000         0.0000000000
lattice         0.0000000000        40.0000000000         0.0000000000
lattice         0.0000000000         0.0000000000        40.0000000000
atom        15.5420000000        5.1156700000        3.7927300000 H         0.0000000000         0.0000000000         8.2414712541     -132.4679564680      -44.1417820515
atom        14.9043000000        2.9918800000        1.8004300000 O         0.0000000000         0.0000000000       -93.4177339990      259.5193901690      251.9456899726
atom        15.7225000000        4.1843400000        3.4733400000 O         0.0000000000         0.0000000000      -150.0712495660       79.6080648478      -71.0336080432
atom        14.5752000000        3.8849300000        2.6223500000 N         0.0000000000         0.0000000000       235.2473123109     -206.6600985488     -136.7699768174
energy      -707.8922802191
charge 0
end
begin
comment generated by PY
lattice        40.0000000000         0.0000000000         0.0000000000
lattice         0.0000000000        40.0000000000         0.0000000000
lattice         0.0000000000         0.0000000000        40.0000000000
atom        16.1507000000        4.9837800000        3.1679500000 H         0.0000000000         0.0000000000       -70.5370454341      -96.5002950644       28.9256628466
atom        14.9304000000        3.0060400000        1.7509200000 O         0.0000000000         0.0000000000      -102.0560700533      239.5467364158      267.0215174883
atom        15.6784000000        4.1999800000        3.4974700000 O         0.0000000000         0.0000000000       -82.3974233183       38.7245187625     -133.2563673372
atom        14.5523000000        3.8603100000        2.6959900000 N         0.0000000000         0.0000000000       254.9910388057     -181.7714601139     -162.6902129977
energy      -676.1231087252
charge 0
end
begin
comment generated by PY
lattice        40.0000000000         0.0000000000         0.0000000000
lattice         0.0000000000        40.0000000000         0.0000000000
lattice         0.0000000000         0.0000000000        40.0000000000
atom        15.6384000000        4.2684500000        4.3948500000 H         0.0000000000         0.0000000000       -13.2599592765        3.0918399030     -129.4995165931
atom        14.9063000000        3.1394900000        1.6514200000 O         0.0000000000         0.0000000000       -91.4828524761      158.8826844971      340.4097982705
atom        15.7252000000        4.3025900000        3.4149100000 O         0.0000000000         0.0000000000      -133.3713899831      -93.2582419818       24.3408017104
atom        14.5631000000        3.6416200000        2.8164000000 N         0.0000000000         0.0000000000       238.1138947962      -68.7162473183     -235.2502603272
energy      -684.9986681040
charge 0
end
begin
comment generated by PY
lattice        40.0000000000         0.0000000000         0.0000000000
lattice         0.0000000000        40.0000000000         0.0000000000
lattice         0.0000000000         0.0000000000        40.0000000000
atom        15.3364000000        5.0769000000        3.7311300000 H         0.0000000000         0.0000000000        39.7064063649     -104.9126086871      -24.5927835799
atom        14.8938000000        3.2155500000        1.6713100000 O         0.0000000000         0.0000000000       -99.8596309794       88.9475666155      351.7155741650
atom        15.7597000000        4.2603600000        3.4367900000 O         0.0000000000         0.0000000000      -166.2970872519       22.1530178691      -42.5523508655
atom        14.5593000000        3.5452100000        2.8160800000 N         0.0000000000         0.0000000000       226.4498118663       -6.1883857975     -284.5701397196
energy      -702.2191921209
charge 0
end
begin
comment generated by PY
lattice        40.0000000000         0.0000000000         0.0000000000
lattice         0.0000000000        40.0000000000         0.0000000000
lattice         0.0000000000         0.0000000000        40.0000000000
atom        15.3873000000        4.6412100000        4.2703800000 H         0.0000000000         0.0000000000        27.6936928578      -57.8678261343     -116.9849503013
atom        14.8813000000        3.1550900000        1.6359200000 O         0.0000000000         0.0000000000       -55.6277138434      141.6693806373      346.0034539910
atom        15.7200000000        4.2735000000        3.4158000000 O         0.0000000000         0.0000000000      -176.9407201270      -47.4199419803        3.0922171100
atom        14.6154000000        3.6304200000        2.8420000000 N         0.0000000000         0.0000000000       204.8745411125      -36.3816125227     -232.1109977391
energy      -696.9976269646
charge 0
end
begin
comment generated by PY
lattice        40.0000000000         0.0000000000         0.0000000000
lattice         0.0000000000        40.0000000000         0.0000000000
lattice         0.0000000000         0.0000000000        40.0000000000
atom        15.3633000000        5.1619900000        3.7755100000 H         0.0000000000         0.0000000000        39.2927275641     -144.1117961908      -40.9524619420
atom        14.8771000000        3.1963800000        1.6406200000 O         0.0000000000         0.0000000000       -65.6926798745      105.1880900208      362.8839040661
atom        15.7404000000        4.2596400000        3.4509800000 O         0.0000000000         0.0000000000      -165.3128833879       45.8892209799      -49.7560757541
atom        14.5987000000        3.5618600000        2.8317800000 N         0.0000000000         0.0000000000       191.7134356983       -6.9655048099     -272.1755663700
energy      -685.9054328130
charge 0
end
begin
comment generated by PY
lattice        40.0000000000         0.0000000000         0.0000000000
lattice         0.0000000000        40.0000000000         0.0000000000
lattice         0.0000000000         0.0000000000        40.0000000000
atom        15.3364000000        4.8478200000        4.0654000000 H         0.0000000000         0.0000000000        33.1590197694      -71.5556664297      -64.7739205369
atom        14.8900000000        3.1878200000        1.6692900000 O         0.0000000000         0.0000000000       -90.3904948459      112.3186138937      349.1708450202
atom        15.7553000000        4.2804500000        3.4286300000 O         0.0000000000         0.0000000000      -164.0212706721      -17.4517802403      -17.2825765619
atom        14.5688000000        3.5703100000        2.8038400000 N         0.0000000000         0.0000000000       221.2529457485      -23.3111902843     -267.1149479214
energy      -710.4530759446