begin
comment generated by PY
lattice        30.0000000000         0.0000000000         0.0000000000
lattice         0.0000000000        30.0000000000         0.0000000000
lattice         0.0000000000         0.0000000000        30.0000000000
atom        17.2312000000       15.5195000000       16.2210000000 H         0.0000000000         0.0000000000      -109.6483434153      -25.9263542964      -69.7743763437
atom        13.0629000000       15.6195000000       15.5068000000 H         0.0000000000         0.0000000000       119.8821337440      -30.5280147959      -18.8449476921
atom        14.1004000000       15.3620000000       15.2878000000 C         0.0000000000         0.0000000000        98.0661156501       61.6377550809      120.8935701938
atom        16.3495000000       15.2422000000       15.6167000000 C         0.0000000000         0.0000000000       -45.9169346121        9.3012887748        3.3358070425
atom        15.5246000000       14.3252000000       13.9714000000 C         0.0000000000         0.0000000000       138.7412383388        6.3880321886       33.9199135919
atom        14.1684000000       14.5996000000       14.0097000000 O         0.0000000000         0.0000000000       184.6226977985       56.1511913839      142.5879207857
atom        15.1066000000       15.7114000000       16.0777000000 N         0.0000000000         0.0000000000         9.1424525783     -197.1810961067     -310.9250815876
atom        16.6858000000       14.4531000000       14.4983000000 N         0.0000000000         0.0000000000      -394.8905600823      120.1568977706       98.8072709490
energy     -1696.5350850536
charge 0
end
begin
comment generated by PY
lattice        30.0000000000         0.0000000000         0.0000000000
lattice         0.0000000000        30.0000000000         0.0000000000
lattice         0.0000000000         0.0000000000        30.0000000000
atom        17.0361000000       15.2091000000       16.5293000000 H         0.0000000000         0.0000000000       -84.4304595632      -25.3967696589     -100.0353625678
atom        13.0632000000       15.8369000000       15.3508000000 H         0.0000000000         0.0000000000       124.6611744572      -37.6296081603      -21.8049774778
atom        14.0811000000       15.4172000000       15.2397000000 C         0.0000000000         0.0000000000       106.0108356461       97.3033635611      122.9756875206
atom        16.3080000000       15.1789000000       15.7015000000 C         0.0000000000         0.0000000000      -100.9840529894       85.3724135823       36.5333912212
atom        15.5699000000       14.2994000000       14.0368000000 C         0.0000000000         0.0000000000        70.3995162529       33.3957346877       23.5403265903
atom        14.1994000000       14.5382000000       14.0949000000 O         0.0000000000         0.0000000000       180.5195800172       29.0408309223      124.7902644428
atom        15.0911000000       15.7870000000       16.0525000000 N         0.0000000000         0.0000000000        10.7152928184     -259.7897442045     -301.9158568816
atom        16.6930000000       14.4835000000       14.3277000000 N         0.0000000000         0.0000000000      -306.8922535786       77.7043043308      115.9168871524
energy     -1690.9266820918
charge 0
end
begin
comment generated by PY
lattice        30.0000000000         0.0000000000         0.0000000000
lattice         0.0000000000        30.0000000000         0.0000000000
lattice         0.0000000000         0.0000000000        30.0000000000
atom        17.0140000000       15.1518000000       16.3445000000 H         0.0000000000         0.0000000000       -89.1364458613      -21.3568100996      -70.7707448212
atom        13.1271000000       16.0004000000       15.4143000000 H         0.0000000000         0.0000000000        91.0213952158      -49.9523334659      -47.4309135084
atom        14.0426000000       15.5251000000       15.2036000000 C         0.0000000000         0.0000000000       148.0108534883       30.8443598570      172.1523136347
atom        16.2062000000       15.1710000000       15.6666000000 C         0.0000000000         0.0000000000       -89.9101555535       96.8719099828       88.2801024637
atom        15.6447000000       14.2736000000       14.0532000000 C         0.0000000000         0.0000000000        50.4089795673       57.1535867099       28.9399051762
atom        14.2444000000       14.5318000000       14.1966000000 O         0.0000000000         0.0000000000       135.3428574381       45.7552688853       92.9321891242
atom        15.0154000000       15.7570000000       16.1070000000 N         0.0000000000         0.0000000000        41.8703776356     -211.8594526266     -362.1446356342
atom        16.7704000000       14.4495000000       14.2125000000 N         0.0000000000         0.0000000000      -287.6090519303       52.5431007571       98.0427835650
energy     -1681.6681999775
charge 0
end
begin
comment generated by PY
lattice        30.0000000000         0.0000000000         0.0000000000
lattice         0.0000000000        30.0000000000         0.0000000000
lattice         0.0000000000         0.0000000000        30.0000000000
atom        17.0469000000       15.4916000000       16.2403000000 H         0.0000000000         0.0000000000       -96.7414187159      -30.4872510452      -90.0317799311
atom        13.0375000000       15.6977000000       15.6007000000 H         0.0000000000         0.0000000000        99.1873839173      -42.9918967517      -45.5987366131
atom        14.0143000000       15.3982000000       15.3059000000 C         0.0000000000         0.0000000000       125.2050687954       74.8293181835      126.9324466901
atom        16.1671000000       15.2875000000       15.5829000000 C         0.0000000000         0.0000000000       -71.3725917015      111.1325888984      175.3733691642
atom        15.6591000000       14.2541000000       14.0467000000 C         0.0000000000         0.0000000000       100.4732137957       30.6178851882       45.2795246734
atom        14.2682000000       14.6484000000       14.1291000000 O         0.0000000000         0.0000000000       118.1923049769       38.1849601297      104.1560431035
atom        15.0191000000       15.8027000000       16.1180000000 N         0.0000000000         0.0000000000        33.0029174407     -244.4602186507     -355.2631052748
atom        16.7892000000       14.2936000000       14.2623000000 N         0.0000000000         0.0000000000      -307.9474785086       63.1746140479       39.1522381878
energy     -1653.6128832891
charge 0
end
begin
comment generated by PY
lattice        30.0000000000         0.0000000000         0.0000000000
lattice         0.0000000000        30.0000000000         0.0000000000
lattice         0.0000000000         0.0000000000        30.0000000000
atom        17.1602000000       15.9601000000       15.9577000000 H         0.0000000000         0.0000000000      -101.8487691213      -51.8712469589      -67.3335181725
atom        13.0328000000       15.4124000000       15.5710000000 H         0.0000000000         0.0000000000       127.6850143740      -33.0566808080      -24.1469935039
atom        14.0964000000       15.2482000000       15.3109000000 C         0.0000000000         0.0000000000        51.4513313190       73.6034348665      114.1132660382
atom        16.2738000000       15.4594000000       15.5387000000 C         0.0000000000         0.0000000000       -93.3512308587        9.4164610080      135.8605340341
atom        15.5516000000       14.2382000000       14.0647000000 C         0.0000000000         0.0000000000        82.7723544099       44.8106718812       16.4260167980
atom        14.2468000000       14.7259000000       13.9876000000 O         0.0000000000         0.0000000000       171.2310457925       18.5500306615      153.3825822637
atom        15.0961000000       15.7094000000       16.1391000000 N         0.0000000000         0.0000000000        64.8077202025     -173.6382009039     -391.4061550268
atom        16.6591000000       14.2802000000       14.4435000000 N         0.0000000000         0.0000000000      -302.7479661181      112.1854902535       63.1043906297
energy     -1691.1099744956
charge 0
end
begin
comment generated by PY
lattice        30.0000000000         0.0000000000         0.0000000000
lattice         0.0000000000        30.0000000000         0.0000000000
lattice         0.0000000000         0.0000000000        30.0000000000
atom        17.0478000000       15.9083000000       15.7207000000 H         0.0000000000         0.0000000000      -109.8803894970      -66.1686233521      -38.0363457920
atom        13.0152000000       15.6508000000       15.5485000000 H         0.0000000000         0.0000000000       109.0303524676      -49.1238129282      -21.0186507044
atom        14.0373000000       15.3757000000       15.3563000000 C         0.0000000000         0.0000000000       125.6456030108       73.2813049178      118.9760764021
atom        16.1501000000       15.2931000000       15.5146000000 C         0.0000000000         0.0000000000         5.6554976039       87.9258952002       95.2836657591
atom        15.6900000000       14.3654000000       13.9261000000 C         0.0000000000         0.0000000000        17.9284166984       -4.6706881632       93.9703565764
atom        14.3024000000       14.6416000000       14.1390000000 O         0.0000000000         0.0000000000       120.7700740743       63.3772822387       74.6200165390
atom        15.0082000000       15.7869000000       16.1329000000 N         0.0000000000         0.0000000000        -4.9671968739     -235.7896468317     -376.0513322354
atom        16.7308000000       14.2098000000       14.3959000000 N         0.0000000000         0.0000000000      -264.1831574840      131.1681027974       52.2560434552
energy     -1685.3104038895
charge 0
end
begin
comment generated by PY
lattice        30.0000000000         0.0000000000         0.0000000000
lattice         0.0000000000        30.0000000000         0.0000000000
lattice         0.0000000000         0.0000000000        30.0000000000
atom        16.9687000000       15.6231000000       16.5462000000 H         0.0000000000         0.0000000000       -97.5266292029      -18.3752779762      -86.8438760561
atom        12.8715000000       15.9164000000       15.3637000000 H         0.0000000000         0.0000000000       107.0573761856      -31.9332346810        1.6021082338
atom        13.8285000000       15.4739000000       15.2015000000 C         0.0000000000         0.0000000000        94.4026910403      -80.5014249331      -69.6776629509
atom        16.1708000000       15.4198000000       15.7866000000 C         0.0000000000         0.0000000000      -193.0204266204        9.8235935405      -12.7540891470
atom        16.5700000000       14.5779000000       14.5895000000 C         0.0000000000         0.0000000000         4.3388601986      -85.1411068650      -79.6376386531
atom        13.8155000000       14.6088000000       14.2018000000 O         0.0000000000         0.0000000000        16.1790913580      160.2851017799      196.3452105151
atom        14.9345000000       15.7852000000       15.9833000000 N         0.0000000000         0.0000000000       117.4834701397     -132.1745175692     -157.6122691158
atom        16.7832000000       13.8752000000       13.7581000000 N         0.0000000000         0.0000000000       -48.9149230989      178.0164436435      208.5786402345
energy     -1766.1704441847
charge 0
end
begin
comment generated by PY
lattice        30.0000000000         0.0000000000         0.0000000000
lattice         0.0000000000        30.0000000000         0.0000000000
lattice         0.0000000000         0.0000000000        30.0000000000
atom        17.1647000000       15.8358000000       16.2338000000 H         0.0000000000         0.0000000000      -116.9714633814      -25.8720458037      -37.2384637968
atom        12.8674000000       15.8414000000       15.4370000000 H         0.0000000000         0.0000000000       111.1466713935      -52.8930205358        9.6033493069
atom        13.8262000000       15.3377000000       15.2536000000 C         0.0000000000         0.0000000000        69.7375044018       15.3958691376     -114.0464034930
atom        16.2356000000       15.4938000000       15.7623000000 C         0.0000000000         0.0000000000      -213.0900670994      -30.4255343055      -61.8067451736
atom        16.5094000000       14.5716000000       14.6164000000 C         0.0000000000         0.0000000000        53.3802700072      -98.3829793370      -90.4405906020
atom        13.7690000000       14.7021000000       14.1170000000 O         0.0000000000         0.0000000000        34.8978326607      107.8635205009      221.4678616163
atom        14.9677000000       15.7554000000       15.9954000000 N         0.0000000000         0.0000000000       135.6061072433     -109.1950531532     -140.1183444137
atom        16.7879000000       13.8472000000       13.8130000000 N         0.0000000000         0.0000000000       -74.7065782862      193.5090204361      212.5793265558
energy     -1751.3203342330
charge 0
end
begin
comment generated by PY
lattice        30.0000000000         0.0000000000         0.0000000000
lattice         0.0000000000        30.0000000000         0.0000000000
lattice         0.0000000000         0.0000000000        30.0000000000
atom        16.9168000000       15.4635000000       16.4382000000 H         0.0000000000         0.0000000000       -89.7361074197      -18.5595581815      -70.5265940016
atom        12.7849000000       16.0046000000       15.2575000000 H         0.0000000000         0.0000000000       131.9561942839      -25.2417900718       -7.0034623130
atom        13.8364000000       15.5736000000       15.1082000000 C         0.0000000000         0.0000000000        29.1666663257     -130.1105083542       10.9571274918
atom        16.1154000000       15.2792000000       15.7447000000 C         0.0000000000         0.0000000000      -169.2076700779       85.8966358984       12.8359570028
atom        16.4819000000       14.4890000000       14.5862000000 C         0.0000000000         0.0000000000        73.2994314896      -53.8427690379     -118.3888887059
atom        13.8016000000       14.5474000000       14.3268000000 O         0.0000000000         0.0000000000        27.5242028708      194.2531217652      145.0618639635
atom        14.9302000000       15.8857000000       16.0280000000 N         0.0000000000         0.0000000000       118.4254298448     -193.8856597100     -213.7217542400
atom        16.9297000000       13.9613000000       13.7047000000 N         0.0000000000         0.0000000000      -121.4282242568      141.4914507522      240.7853508023
energy     -1743.4825499223
charge 0
end
begin
comment generated by PY
lattice        30.0000000000         0.0000000000         0.0000000000
lattice         0.0000000000        30.0000000000         0.0000000000
lattice         0.0000000000         0.0000000000        30.0000000000
atom        17.0006000000       15.9537000000       15.9374000000 H         0.0000000000         0.0000000000      -119.0673092790      -40.8242934344      -22.8795597623
atom        12.6499000000       15.2953000000       15.8015000000 H         0.0000000000         0.0000000000       136.8641312903       -4.7537401722      -34.6664384590
atom        13.7553000000       15.2513000000       15.3826000000 C         0.0000000000         0.0000000000       102.6379392897       31.4885886453     -123.8947417889
atom        16.0516000000       15.4822000000       15.6043000000 C         0.0000000000         0.0000000000      -108.1669339476       39.7657666593       41.3640715371
atom        16.5479000000       14.4569000000       14.5731000000 C         0.0000000000         0.0000000000        -3.0728274072      -78.8525544732      -93.3546543525
atom        13.9379000000       14.8850000000       14.1263000000 O         0.0000000000         0.0000000000       -42.1797649886       70.0544659139      253.9155855497
atom        14.8813000000       15.8613000000       16.0619000000 N         0.0000000000         0.0000000000       113.0056929616     -199.2659714230     -221.7147837938
atom        16.8942000000       13.7453000000       13.7932000000 N         0.0000000000         0.0000000000       -80.0201748587      182.3879652238      201.2302449486
energy     -1732.5631237630
charge 0
end
begin
comment generated by PY
lattice        30.0000000000         0.0000000000         0.0000000000
lattice         0.0000000000        30.0000000000         0.0000000000
lattice         0.0000000000         0.0000000000        30.0000000000
atom        16.6477000000       15.2118000000       16.7916000000 H         0.0000000000         0.0000000000       -36.7961267871       12.5455687507     -103.7222386645
atom        13.1282000000       16.4308000000       14.8449000000 H         0.0000000000         0.0000000000        84.2987011536      -90.3654548070       34.6486639894
atom        13.8563000000       15.5929000000       15.0400000000 C         0.0000000000         0.0000000000       105.9664119790      -78.5594998671      -24.1754337105
atom        16.1737000000       15.2710000000       15.8461000000 C         0.0000000000         0.0000000000      -236.0425958409       42.7147057311       -9.6912295407
atom        16.6233000000       14.5534000000       14.6251000000 C         0.0000000000         0.0000000000       -14.5172295227      -60.8377073387     -127.0682953837
atom        13.7608000000       14.4827000000       14.3779000000 O         0.0000000000         0.0000000000        16.3089882940      208.5950966027      137.9342804371
atom        14.9215000000       15.8296000000       15.9582000000 N         0.0000000000         0.0000000000       120.5536399499     -180.5117849433     -171.9228023344
atom        16.7912000000       14.0140000000       13.6586000000 N         0.0000000000         0.0000000000       -39.7717892258      146.4190758716      263.9963321467
energy     -1744.0300280788
charge 0
end
begin
comment generated by PY
lattice        30.0000000000         0.0000000000         0.0000000000
lattice         0.0000000000        30.0000000000         0.0000000000
lattice         0.0000000000         0.0000000000        30.0000000000
atom        16.9601000000       16.2225000000       16.0424000000 H         0.0000000000         0.0000000000       -92.5151122883      -67.4888222533      -39.3185520226
atom        12.8804000000       14.9041000000       15.7842000000 H         0.0000000000         0.0000000000       111.9167310889       29.1281035591      -24.3710231381
atom        13.8380000000       15.1228000000       15.3235000000 C         0.0000000000         0.0000000000        85.4644341460       31.9521386835     -115.2980880108
atom        16.1663000000       15.5879000000       15.6525000000 C         0.0000000000         0.0000000000      -170.7248144891      -10.2194151903       27.5726257952
atom        16.6123000000       14.4841000000       14.6986000000 C         0.0000000000         0.0000000000       -52.0758367001      -34.0444653261      -96.7574284681
atom        13.8566000000       14.9198000000       14.0484000000 O         0.0000000000         0.0000000000         6.8291279351       45.3444924927      244.3640542780
atom        14.9528000000       15.7791000000       15.9900000000 N         0.0000000000         0.0000000000       117.0112246074     -146.0167846244     -190.0331384126
atom        16.6773000000       13.7929000000       13.8495000000 N         0.0000000000         0.0000000000        -5.9050412394      151.3448526588      193.8428199790
energy     -1774.6689690529
charge 0
end
begin
comment generated by PY
lattice        30.0000000000         0.0000000000         0.0000000000
lattice         0.0000000000        30.0000000000         0.0000000000
lattice         0.0000000000         0.0000000000        30.0000000000
atom        16.9086000000       15.4760000000       16.6144000000 H         0.0000000000         0.0000000000       -91.9980318885      -22.0423814542      -86.2390477627
atom        12.9647000000       16.0803000000       15.3023000000 H         0.0000000000         0.0000000000        96.1604279846      -39.1014760439      -15.8875901109
atom        13.8616000000       15.5545000000       15.1049000000 C         0.0000000000         0.0000000000        65.9573453188     -112.1832168168      -11.3302412885
atom        16.1343000000       15.2881000000       15.8435000000 C         0.0000000000         0.0000000000      -166.1033424488       87.1666729963      -27.9678777236
atom        16.5532000000       14.5472000000       14.6110000000 C         0.0000000000         0.0000000000        12.6587075861      -75.1189754517      -86.3808786026
atom        13.7788000000       14.5560000000       14.2364000000 O         0.0000000000         0.0000000000        31.5755300310      198.3898522050      176.8729978964
atom        14.9521000000       15.8450000000       15.9968000000 N         0.0000000000         0.0000000000       115.0308339655     -190.1126529367     -172.3773305878
atom        16.8225000000       13.9447000000       13.7201000000 N         0.0000000000         0.0000000000       -63.2814936091      153.0023344414      223.3099020586
energy     -1758.7092528082
charge 0
end
begin
comment generated by PY
lattice        30.0000000000         0.0000000000         0.0000000000
lattice         0.0000000000        30.0000000000         0.0000000000
lattice         0.0000000000         0.0000000000        30.0000000000
atom        16.9142000000       15.5055000000       16.4233000000 H         0.0000000000         0.0000000000       -85.9020037507      -18.1811739966      -62.8118473634
atom        12.8591000000       15.8442000000       15.4773000000 H         0.0000000000         0.0000000000       100.7978596542      -33.3076334828      -15.5920918360
atom        13.8172000000       15.4519000000       15.2360000000 C         0.0000000000         0.0000000000       123.5032222525      -54.8472341385      -67.1846576104
atom        16.1039000000       15.3016000000       15.7753000000 C         0.0000000000         0.0000000000      -182.0402295033      111.1681059042      -55.9044066861
atom        16.4269000000       14.5806000000       14.5233000000 C         0.0000000000         0.0000000000        75.6420151898     -115.5836423545      -52.6340613072
atom        13.9169000000       14.5790000000       14.2583000000 O         0.0000000000         0.0000000000       -15.4150495202      167.3237130545      192.8976848561
atom        14.9317000000       15.9168000000       15.9685000000 N         0.0000000000         0.0000000000        97.0104525960     -236.7956777714     -136.8712915654
atom        16.8648000000       13.9091000000       13.7459000000 N         0.0000000000         0.0000000000      -113.5967670393      180.2238427851      198.1005045730
energy     -1765.6164320058
charge 0
end
begin
comment generated by PY
lattice        30.0000000000         0.0000000000         0.0000000000
lattice         0.0000000000        30.0000000000         0.0000000000
lattice         0.0000000000         0.0000000000        30.0000000000
atom        16.9163000000       16.2814000000       15.9868000000 H         0.0000000000         0.0000000000       -85.7366856769      -77.6088775126      -60.4591373748
atom        12.9975000000       14.7217000000       15.9181000000 H         0.0000000000         0.0000000000       113.3114045455       40.2452076535      -46.7048171164
atom        13.9233000000       15.0621000000       15.3673000000 C         0.0000000000         0.0000000000        43.8878183742       55.0897845518      -79.0907382961
atom        16.1357000000       15.6348000000       15.5250000000 C         0.0000000000         0.0000000000      -190.4417625271      -22.6617698712      103.2654826910
atom        16.4247000000       14.5246000000       14.6231000000 C         0.0000000000         0.0000000000        72.7263364889      -69.2697437720     -105.7443502346
atom        13.8792000000       14.9305000000       14.0775000000 O         0.0000000000         0.0000000000        21.0841349934       30.4066044569      247.2088117165
atom        14.9318000000       15.7849000000       16.0450000000 N         0.0000000000         0.0000000000       121.0496889096     -155.3562316216     -255.8363915706
atom        16.7813000000       13.7607000000       13.8923000000 N         0.0000000000         0.0000000000       -95.8807120470      199.1543330547      197.3615401849
energy     -1768.6739979046
charge 0
end
begin
comment generated by PY
lattice        30.0000000000         0.0000000000         0.0000000000
lattice         0.0000000000        30.0000000000         0.0000000000
lattice         0.0000000000         0.0000000000        30.0000000000
atom        16.9000000000       15.5593000000       16.4518000000 H         0.0000000000         0.0000000000       -79.5715431255      -29.1643633101      -50.3633377989
atom        12.8687000000       16.0926000000       15.4737000000 H         0.0000000000         0.0000000000       117.6895623046      -50.3104743074      -43.3942062435
atom        13.8322000000       15.5563000000       15.1383000000 C         0.0000000000         0.0000000000        52.2734815166     -117.8317130272       19.9982682813
atom        16.1211000000       15.2888000000       15.8203000000 C         0.0000000000         0.0000000000      -175.3537387109      104.4669191777      -79.7460615836
atom        16.5511000000       14.5535000000       14.5657000000 C         0.0000000000         0.0000000000        46.9373930189      -82.7272039445      -88.8966408988
atom        13.7262000000       14.5066000000       14.3279000000 O         0.0000000000         0.0000000000        32.4398027244      213.1742084024      161.9500310779
atom        14.9513000000       15.8602000000       15.9492000000 N         0.0000000000         0.0000000000       103.9759296230     -193.1514515801     -148.4473132504
atom        16.9293000000       13.9715000000       13.6928000000 N         0.0000000000         0.0000000000       -98.3910642906      155.5445324680      228.8982604160
energy     -1755.1856533828
charge 0
end
begin
comment generated by PY
lattice        30.0000000000         0.0000000000         0.0000000000
lattice         0.0000000000        30.0000000000         0.0000000000
lattice         0.0000000000         0.0000000000        30.0000000000
atom        16.9842000000       15.7517000000       16.4222000000 H         0.0000000000         0.0000000000       -99.3565509013      -44.4916851146      -75.3878678050
atom        12.8585000000       15.9586000000       15.4769000000 H         0.0000000000         0.0000000000       114.0414955095      -46.3970670996      -17.5097008241
atom        13.8131000000       15.4556000000       15.2112000000 C         0.0000000000         0.0000000000        37.7880435762      -53.1274314781      -46.7253263636
atom        16.1610000000       15.3815000000       15.7497000000 C         0.0000000000         0.0000000000      -160.5928162208       67.2861214219        4.2382620292
atom        16.6121000000       14.5476000000       14.5864000000 C         0.0000000000         0.0000000000         5.6571327455      -71.3716733711      -84.3857382860
atom        13.6957000000       14.6041000000       14.2249000000 O         0.0000000000         0.0000000000        46.9140129204      161.0732107844      196.5109612493
atom        14.9404000000       15.8260000000       16.0082000000 N         0.0000000000         0.0000000000       122.1493659180     -174.0426182835     -188.4889244016
atom        16.8996000000       13.9020000000       13.7336000000 N         0.0000000000         0.0000000000       -66.6011835476      161.0722662013      211.7490344018
energy     -1752.3914863896
charge 0
end
begin
comment generated by PY
lattice        30.0000000000         0.0000000000         0.0000000000
lattice         0.0000000000        30.0000000000         0.0000000000
lattice         0.0000000000         0.0000000000        30.0000000000
atom        16.9432000000       16.0800000000       16.0702000000 H         0.0000000000         0.0000000000       -82.0464394422      -56.7421510742      -28.2085534589
atom        12.7030000000       15.4767000000       15.6264000000 H         0.0000000000         0.0000000000       114.3732696756        6.4073835098       -4.0215102718
atom        13.7171000000       15.3622000000       15.3096000000 C         0.0000000000         0.0000000000       113.5987379491      -86.2552598324      -95.4674062722
atom        16.1651000000       15.5098000000       15.6601000000 C         0.0000000000         0.0000000000      -196.7852968506        4.6872588219        0.2055767897
atom        16.6524000000       14.5462000000       14.5642000000 C         0.0000000000         0.0000000000       -20.6493794470      -67.4421776316      -54.5504080528
atom        13.7705000000       14.7603000000       14.1747000000 O         0.0000000000         0.0000000000         1.5913187293      118.0603292628      204.7302774170
atom        14.9253000000       15.7315000000       16.0286000000 N         0.0000000000         0.0000000000       115.3524082560      -84.9216831892     -192.4988956275
atom        16.8875000000       13.8002000000       13.7965000000 N         0.0000000000         0.0000000000       -45.4343748702      166.2057931934      169.8105164159
energy     -1760.2953520861
charge 0
end
begin
comment generated by PY
lattice        30.0000000000         0.0000000000         0.0000000000
lattice         0.0000000000        30.0000000000         0.0000000000
lattice         0.0000000000         0.0000000000        30.0000000000