begin
comment generated by PY
lattice        30.0000000000         0.0000000000         0.0000000000
lattice         0.0000000000        30.0000000000         0.0000000000
lattice         0.0000000000         0.0000000000        30.0000000000
atom        13.6166000000       16.5426000000       15.5796000000 H         0.0000000000         0.0000000000        61.0994054141      -93.1947543998      -51.0704176484
atom        14.1438000000       15.9712000000       13.9687000000 H         0.0000000000         0.0000000000         1.6857438975      -32.5869859901      119.1683210370
atom        14.0663000000       15.6708000000       15.0439000000 C         0.0000000000         0.0000000000        31.7654189311      -81.3567163369       24.8565917687
atom        13.2265000000       14.5457000000       15.1669000000 O         0.0000000000         0.0000000000       109.0673698105      136.0575941047      -13.5976917504
atom        17.2428000000       13.8424000000       15.2566000000 O         0.0000000000         0.0000000000      -326.6420231780       86.2288872030     -108.4432897799
atom        15.4468000000       15.2958000000       15.6438000000 N         0.0000000000         0.0000000000      -108.0869557913      -95.5966086719     -191.7248734645
atom        16.0504000000       14.1902000000       14.8819000000 N         0.0000000000         0.0000000000       231.1114339767       80.4487071515      220.8118398375
energy     -1188.1247562578
charge 0
end
begin
comment generated by PY
lattice        30.0000000000         0.0000000000         0.0000000000
lattice         0.0000000000        30.0000000000         0.0000000000
lattice         0.0000000000         0.0000000000        30.0000000000
atom        14.4039000000       15.8529000000       14.0563000000 H         0.0000000000         0.0000000000       -31.2049612233      -98.5230859025       72.9300288296
atom        13.3896000000       14.3284000000       14.0142000000 H         0.0000000000         0.0000000000        86.7677677932       57.6295932292       66.6157490265
atom        14.0383000000       14.9978000000       14.7015000000 C         0.0000000000         0.0000000000       -14.2927749356      -17.0628928874       79.7786800123
atom        12.9777000000       15.3509000000       15.5293000000 O         0.0000000000         0.0000000000       131.6277459274      -38.7166604458      -92.4063265441
atom        17.4089000000       14.0148000000       15.2357000000 O         0.0000000000         0.0000000000      -247.3940219002      227.5902628983      -46.1297648286
atom        15.1715000000       14.2684000000       15.4894000000 N         0.0000000000         0.0000000000         1.4341481506      179.0055740725     -182.4370934458
atom        16.4421000000       14.8445000000       15.0453000000 N         0.0000000000         0.0000000000        73.0621961879     -309.9237909642      101.6492269501
energy     -1177.1573236647
charge 0
end
begin
comment generated by PY
lattice        30.0000000000         0.0000000000         0.0000000000
lattice         0.0000000000        30.0000000000         0.0000000000
lattice         0.0000000000         0.0000000000        30.0000000000
atom        14.5270000000       16.3337000000       14.8706000000 H         0.0000000000         0.0000000000       -44.6401786518     -117.0271450236       -1.5511708242
atom        13.6548000000       15.0119000000       13.8633000000 H         0.0000000000         0.0000000000        60.2361548235       20.8238186048       98.5684367425
atom        14.0262000000       15.3116000000       14.8769000000 C         0.0000000000         0.0000000000       -74.7671729349      -12.7534956858       40.2038890534
atom        12.8163000000       15.2949000000       15.4858000000 O         0.0000000000         0.0000000000       175.2831706986       -0.2388165188      -77.5995988718
atom        17.5517000000       14.3343000000       15.3968000000 O         0.0000000000         0.0000000000      -288.9010416633      -23.1311378106     -188.8508850888
atom        15.1799000000       14.1931000000       15.4815000000 N         0.0000000000         0.0000000000        78.2105385855      112.9914293633     -179.6913685103
atom        16.4374000000       14.2662000000       14.7209000000 N         0.0000000000         0.0000000000        94.5790291423       19.3353370705      308.9206644993
energy     -1151.6065758835
charge 0
end
begin
comment generated by PY
lattice        30.0000000000         0.0000000000         0.0000000000
lattice         0.0000000000        30.0000000000         0.0000000000
lattice         0.0000000000         0.0000000000        30.0000000000
atom        13.5927000000       16.3241000000       16.0669000000 H         0.0000000000         0.0000000000        60.3743756164      -72.9226388763      -80.3755515397
atom        13.9833000000       16.2423000000       14.3276000000 H         0.0000000000         0.0000000000        18.7118635917      -58.2360418630      104.4324815782
atom        14.0607000000       15.6711000000       15.2894000000 C         0.0000000000         0.0000000000        66.4705102721      -91.8575901342      -12.5725802357
atom        13.2869000000       14.4604000000       15.0509000000 O         0.0000000000         0.0000000000        94.3392093627      146.1668728809       31.4351843708
atom        17.0784000000       13.7170000000       15.2987000000 O         0.0000000000         0.0000000000      -234.5411978468      192.1223934000     -190.3607288844
atom        15.4479000000       15.2931000000       15.6595000000 N         0.0000000000         0.0000000000      -136.3443761175      -30.8730207617     -175.7627753798
atom        16.1863000000       14.4296000000       14.6797000000 N         0.0000000000         0.0000000000       130.9890151213      -84.3993746458      323.2036300905
energy     -1182.1667954692
charge 0
end
begin
comment generated by PY
lattice        30.0000000000         0.0000000000         0.0000000000
lattice         0.0000000000        30.0000000000         0.0000000000
lattice         0.0000000000         0.0000000000        30.0000000000
atom        13.4965000000       16.4815000000       15.7392000000 H         0.0000000000         0.0000000000        73.7666486389      -86.6597474070      -58.1316327504
atom        14.3155000000       16.1353000000       14.1394000000 H         0.0000000000         0.0000000000       -14.6721552149      -41.1873314575      113.9548555986
atom        14.0884000000       15.7065000000       15.1381000000 C         0.0000000000         0.0000000000        43.0425535311      -80.3391820511       10.0083989874
atom        13.4436000000       14.5117000000       14.9867000000 O         0.0000000000         0.0000000000        81.5441946216      136.8610051306       28.9377523258
atom        17.1416000000       13.8568000000       15.0540000000 O         0.0000000000         0.0000000000      -347.4346150946       86.4569754607      -18.4956342233
atom        15.4185000000       15.2864000000       15.8908000000 N         0.0000000000         0.0000000000      -106.0704254482      -79.2039739832     -207.8566539051
atom        15.9238000000       14.1842000000       14.9679000000 N         0.0000000000         0.0000000000       269.8243759056       64.0723973680      131.5827909066
energy     -1189.2684626533
charge 0
end
begin
comment generated by PY
lattice        30.0000000000         0.0000000000         0.0000000000
lattice         0.0000000000        30.0000000000         0.0000000000
lattice         0.0000000000         0.0000000000        30.0000000000
atom        13.5141000000       16.0809000000       16.2970000000 H         0.0000000000         0.0000000000        66.5199618426      -49.8603988010      -89.3003271177
atom        13.8248000000       16.6377000000       14.7723000000 H         0.0000000000         0.0000000000        31.3427212369     -106.8690142456       50.7822008098
atom        14.0056000000       15.6932000000       15.3550000000 C         0.0000000000         0.0000000000        41.6486944561      -66.2045602449      -10.4116685182
atom        13.2831000000       14.5274000000       14.8925000000 O         0.0000000000         0.0000000000        90.5563972592      153.4487924145       63.4959223536
atom        17.2306000000       13.7580000000       15.2217000000 O         0.0000000000         0.0000000000      -336.7596304820      114.9308025333      -80.2020650804
atom        15.4844000000       15.4055000000       15.5724000000 N         0.0000000000         0.0000000000      -129.9852512656     -118.0902526313      -97.9622938302
atom        16.0444000000       14.1641000000       14.9312000000 N         0.0000000000         0.0000000000       236.6771300134       72.6446909751      163.5981313831
energy     -1174.2402861728
charge 0
end
begin
comment generated by PY
lattice        30.0000000000         0.0000000000         0.0000000000
lattice         0.0000000000        30.0000000000         0.0000000000
lattice         0.0000000000         0.0000000000        30.0000000000
atom        13.7848000000       16.6809000000       15.5228000000 H         0.0000000000         0.0000000000        50.3162384717     -118.5504400715      -37.1433252737
atom        14.2060000000       15.8759000000       13.9437000000 H         0.0000000000         0.0000000000         5.9906774436      -26.9916095937      128.4883321937
atom        14.0940000000       15.6487000000       15.0759000000 C         0.0000000000         0.0000000000       -26.4274973350      -81.3264418191       -3.8544759406
atom        13.0609000000       14.7212000000       15.1374000000 O         0.0000000000         0.0000000000       127.1572219246      112.9930693951       -4.9781470907
atom        17.3877000000       13.9000000000       15.1837000000 O         0.0000000000         0.0000000000      -322.5670452806       97.4476225692      -86.8105793375
atom        15.3139000000       14.9439000000       15.7554000000 N         0.0000000000         0.0000000000         5.6015512834       -7.7089915512     -240.2655337395
atom        16.1668000000       14.2917000000       14.8657000000 N         0.0000000000         0.0000000000       159.9291934923       24.1368410712      244.5634561277
energy     -1182.0999385204
charge 0
end
begin
comment generated by PY
lattice        30.0000000000         0.0000000000         0.0000000000
lattice         0.0000000000        30.0000000000         0.0000000000
lattice         0.0000000000         0.0000000000        30.0000000000
atom        13.5597000000       16.5900000000       15.5912000000 H         0.0000000000         0.0000000000        67.0012021500     -102.0828177243      -40.1210688551
atom        14.2504000000       15.8183000000       14.0956000000 H         0.0000000000         0.0000000000        -9.7359769394       -8.7647798699      117.2602497014
atom        14.0436000000       15.6652000000       15.1668000000 C         0.0000000000         0.0000000000        22.4136815715      -94.2502542666       -9.1527587312
atom        13.1010000000       14.5864000000       15.0534000000 O         0.0000000000         0.0000000000       119.4857408639      130.7056553695       19.6824127077
atom        17.2894000000       13.7433000000       15.1655000000 O         0.0000000000         0.0000000000      -317.3117824841      172.3976377433      -99.0351975776
atom        15.4035000000       15.2347000000       15.8288000000 N         0.0000000000         0.0000000000       -88.5862982016      -38.9248647873     -208.7768562029
atom        16.1999000000       14.3305000000       14.8154000000 N         0.0000000000         0.0000000000       206.7338330397      -59.0806995253      220.1420058971
energy     -1160.3138523936
charge 0
end
begin
comment generated by PY
lattice        30.0000000000         0.0000000000         0.0000000000
lattice         0.0000000000        30.0000000000         0.0000000000
lattice         0.0000000000         0.0000000000        30.0000000000
atom        13.5159000000       16.2955000000       16.0545000000 H         0.0000000000         0.0000000000        76.8020440480      -62.2043456653      -77.5724732645
atom        14.1007000000       16.3242000000       14.3532000000 H         0.0000000000         0.0000000000         2.8092081267      -65.7972805182      100.9150612356
atom        14.0551000000       15.6985000000       15.2725000000 C         0.0000000000         0.0000000000        34.3963995071     -102.0990548868      -12.1442570130
atom        13.1869000000       14.5740000000       15.0159000000 O         0.0000000000         0.0000000000       108.7517703297      133.3746244785       30.2816750849
atom        17.2627000000       13.7962000000       15.2582000000 O         0.0000000000         0.0000000000      -306.9191348054      118.7641004185     -142.8648924128
atom        15.4230000000       15.2148000000       15.6757000000 N         0.0000000000         0.0000000000      -111.1845238609      -45.7892726150     -171.1797958207
atom        16.1167000000       14.2603000000       14.7632000000 N         0.0000000000         0.0000000000       195.3441735942       23.7512718488      272.5652821906
energy     -1171.2555987729
charge 0
end
begin
comment generated by PY
lattice        30.0000000000         0.0000000000         0.0000000000
lattice         0.0000000000        30.0000000000         0.0000000000
lattice         0.0000000000         0.0000000000        30.0000000000
atom        13.5562000000       16.3540000000       15.8574000000 H         0.0000000000         0.0000000000        79.4010568855      -76.5679563403      -61.0272164002
atom        14.2912000000       16.0564000000       14.2367000000 H         0.0000000000         0.0000000000        -3.6179075306      -36.3627960599      115.2347292438
atom        14.1726000000       15.6299000000       15.2578000000 C         0.0000000000         0.0000000000        39.9177709540      -83.1607568147      -10.1622348957
atom        13.3147000000       14.5143000000       14.9496000000 O         0.0000000000         0.0000000000       110.8820125488      124.3698781652       42.1966648489
atom        17.1452000000       13.8674000000       15.1353000000 O         0.0000000000         0.0000000000      -329.0366853028       87.8796903248      -72.7572422020
atom        15.4930000000       15.2831000000       15.8035000000 N         0.0000000000         0.0000000000      -162.6883506486      -80.5777316558     -223.6963780448
atom        15.9178000000       14.2528000000       14.8867000000 N         0.0000000000         0.0000000000       265.1423430936       64.4196954412      210.2119335105
energy     -1202.8693140105
charge 0
end
begin
comment generated by PY
lattice        30.0000000000         0.0000000000         0.0000000000
lattice         0.0000000000        30.0000000000         0.0000000000
lattice         0.0000000000         0.0000000000        30.0000000000
atom        13.6214000000       16.3505000000       16.0744000000 H         0.0000000000         0.0000000000        58.1329238638      -72.1685043896      -83.6059726945
atom        14.1507000000       16.4578000000       14.3958000000 H         0.0000000000         0.0000000000        -0.2062345035      -85.1575575864       88.0743974624
atom        14.0734000000       15.7323000000       15.2388000000 C         0.0000000000         0.0000000000        39.0748285755      -82.3066066472       25.5175295567
atom        13.2522000000       14.5693000000       14.9839000000 O         0.0000000000         0.0000000000       110.2355571602      144.9810542367       34.4686883789
atom        17.2732000000       13.9052000000       15.1536000000 O         0.0000000000         0.0000000000      -346.3742729988       46.0844726899      -77.4795482748
atom        15.4257000000       15.2049000000       15.7461000000 N         0.0000000000         0.0000000000      -121.8087882108      -57.4180822902     -173.1213453361
atom        16.0006000000       14.1086000000       14.8734000000 N         0.0000000000         0.0000000000       260.9465061137      105.9852239868      186.1467278469
energy     -1163.2868880917
charge 0
end
begin
comment generated by PY
lattice        30.0000000000         0.0000000000         0.0000000000
lattice         0.0000000000        30.0000000000         0.0000000000
lattice         0.0000000000         0.0000000000        30.0000000000
atom        13.5310000000       16.3777000000       16.0660000000 H         0.0000000000         0.0000000000        54.0757895506      -75.4968878082      -76.6980770550
atom        13.9466000000       16.3863000000       14.3228000000 H         0.0000000000         0.0000000000        16.0926048270      -74.2288293215      103.8442303471
atom        13.9427000000       15.7247000000       15.2648000000 C         0.0000000000         0.0000000000         0.1154392821      -76.8684019625      -31.2217265248
atom        13.2079000000       14.5606000000       14.9809000000 O         0.0000000000         0.0000000000       101.3622412346      158.6811922297       45.3317286518
atom        17.2939000000       13.7583000000       15.1831000000 O         0.0000000000         0.0000000000      -316.2106639203      124.8318379317      -97.8187687036
atom        15.4893000000       15.2491000000       15.7288000000 N         0.0000000000         0.0000000000       -66.3899364857      -99.9385957341     -185.7031756721
atom        16.0971000000       14.2519000000       14.8438000000 N         0.0000000000         0.0000000000       210.9545255117       43.0198146649      242.2662989566
energy     -1144.7478457089
charge 0
end
begin
comment generated by PY
lattice        30.0000000000         0.0000000000         0.0000000000
lattice         0.0000000000        30.0000000000         0.0000000000
lattice         0.0000000000         0.0000000000        30.0000000000
atom        13.6370000000       16.5221000000       15.7049000000 H         0.0000000000         0.0000000000        68.1132541732      -94.6534758687      -57.1665384841
atom        14.3635000000       16.0481000000       14.0553000000 H         0.0000000000         0.0000000000       -23.1240880697      -47.0230248804      124.5619282699
atom        14.1193000000       15.6414000000       15.1297000000 C         0.0000000000         0.0000000000        22.4929205875      -69.5820161901       30.9931792941
atom        13.1072000000       14.6466000000       15.1166000000 O         0.0000000000         0.0000000000       131.3257789506      113.1282570123       -1.5481435865
atom        17.3053000000       13.8422000000       15.2062000000 O         0.0000000000         0.0000000000      -315.7543680605      126.9851859178     -128.2599592246
atom        15.3417000000       15.0800000000       15.8023000000 N         0.0000000000         0.0000000000       -86.9381807962       -0.5168627303     -229.4339313986
atom        16.1580000000       14.3122000000       14.7497000000 N         0.0000000000         0.0000000000       203.8849062758      -28.3380632607      260.8542820692
energy     -1160.4765798489
charge 0
end
begin
comment generated by PY
lattice        30.0000000000         0.0000000000         0.0000000000
lattice         0.0000000000        30.0000000000         0.0000000000
lattice         0.0000000000         0.0000000000        30.0000000000
atom        13.6110000000       16.4669000000       15.7804000000 H         0.0000000000         0.0000000000        76.0233169913      -81.6876801668      -63.9932840261
atom        14.1392000000       15.9698000000       14.0233000000 H         0.0000000000         0.0000000000        14.9483881542      -25.0912078296      131.5016795255
atom        14.1048000000       15.6636000000       15.1555000000 C         0.0000000000         0.0000000000       -30.0943484866      -96.2919495837       -7.3631310063
atom        13.1304000000       14.6546000000       15.0912000000 O         0.0000000000         0.0000000000       123.0229112767      106.5012555690       13.1683481561
atom        17.3156000000       13.8862000000       15.2239000000 O         0.0000000000         0.0000000000      -293.6718645733       77.9303365397     -112.7756407935
atom        15.4317000000       15.0591000000       15.7428000000 N         0.0000000000         0.0000000000       -79.2999174054      -38.8780236065     -237.2863014435
atom        16.0600000000       14.2641000000       14.7929000000 N         0.0000000000         0.0000000000       189.0716620431       57.5173690778      276.7485095879
energy     -1158.7631181981
charge 0
end
begin
comment generated by PY
lattice        30.0000000000         0.0000000000         0.0000000000
lattice         0.0000000000        30.0000000000         0.0000000000
lattice         0.0000000000         0.0000000000        30.0000000000
atom        13.4676000000       16.1670000000       16.2292000000 H         0.0000000000         0.0000000000        59.5871891374      -49.1331730593      -86.8686387870
atom        14.0229000000       16.5018000000       14.5960000000 H         0.0000000000         0.0000000000        -5.9748608931      -84.4072368509       67.9209218415
atom        13.9029000000       15.7142000000       15.3233000000 C         0.0000000000         0.0000000000         1.1582726775      -76.7851786625      -12.5154923135
atom        13.1805000000       14.5860000000       14.9495000000 O         0.0000000000         0.0000000000       106.0107298959      158.8852971376       50.6993064810
atom        17.3509000000       13.8098000000       15.1879000000 O         0.0000000000         0.0000000000      -317.3391231972       67.4483515142      -83.4983005639
atom        15.5540000000       15.3051000000       15.6541000000 N         0.0000000000         0.0000000000       -82.3649229640     -137.6382749914     -140.8455067532
atom        16.0319000000       14.1239000000       14.8677000000 N         0.0000000000         0.0000000000       238.9232594041      121.6301149123      205.1081531556
energy     -1120.1404947324
charge 0
end
begin
comment generated by PY
lattice        30.0000000000         0.0000000000         0.0000000000
lattice         0.0000000000        30.0000000000         0.0000000000
lattice         0.0000000000         0.0000000000        30.0000000000
atom        13.3814000000       16.3441000000       15.8917000000 H         0.0000000000         0.0000000000        77.1060069034      -70.5974443913      -59.2979779477
atom        14.0491000000       16.2140000000       14.2777000000 H         0.0000000000         0.0000000000         9.6380165787      -51.1846906787      103.6307241068
atom        13.9975000000       15.6895000000       15.2415000000 C         0.0000000000         0.0000000000        42.0664122454      -87.2455226358      -19.3114805781
atom        13.4245000000       14.4489000000       15.0088000000 O         0.0000000000         0.0000000000        72.8858154646      154.8491848630       32.7730249470
atom        17.0810000000       13.6278000000       15.1708000000 O         0.0000000000         0.0000000000      -273.1464440624      213.8065446220     -102.3169805865
atom        15.4934000000       15.4015000000       15.7845000000 N         0.0000000000         0.0000000000      -101.0760273488      -97.8032025105     -207.3474512448
atom        16.0451000000       14.4212000000       14.8062000000 N         0.0000000000         0.0000000000       172.5264902191      -61.8243692687      251.8700413031
energy     -1158.4344726326
charge 0
end
begin
comment generated by PY
lattice        30.0000000000         0.0000000000         0.0000000000
lattice         0.0000000000        30.0000000000         0.0000000000
lattice         0.0000000000         0.0000000000        30.0000000000
atom        13.7058000000       16.4904000000       15.9335000000 H         0.0000000000         0.0000000000        54.2433821304      -86.8767405096      -70.5859428785
atom        14.3040000000       16.1794000000       14.2681000000 H         0.0000000000         0.0000000000         1.3068433227      -39.0159336561      108.7373155354
atom        14.1675000000       15.7449000000       15.2516000000 C         0.0000000000         0.0000000000        44.7745862077     -101.4136753585        2.9947569158
atom        13.2835000000       14.5801000000       14.8938000000 O         0.0000000000         0.0000000000        99.3516806896      122.2169522745       59.7348336596
atom        17.2654000000       13.9984000000       14.9287000000 O         0.0000000000         0.0000000000      -361.3756526470       -1.6216631703       66.1296010636
atom        15.3438000000       15.1876000000       15.8671000000 N         0.0000000000         0.0000000000      -109.8696642920      -53.1896245024     -184.2655583205
atom        15.9580000000       14.0061000000       15.1206000000 N         0.0000000000         0.0000000000       271.5694245886      159.9006049224       17.2548240245
energy     -1170.2415913787
charge 0
end
begin
comment generated by PY
lattice        30.0000000000         0.0000000000         0.0000000000
lattice         0.0000000000        30.0000000000         0.0000000000
lattice         0.0000000000         0.0000000000        30.0000000000
atom        13.5542000000       16.4720000000       15.7619000000 H         0.0000000000         0.0000000000        73.8349110444      -76.0918280413      -63.4567956006
atom        14.1366000000       15.9708000000       14.1066000000 H         0.0000000000         0.0000000000         2.9070504143      -20.1718505968      105.0007682618
atom        14.0179000000       15.6893000000       15.1281000000 C         0.0000000000         0.0000000000        -8.1422557363     -122.2646184006       22.7128305774
atom        13.1068000000       14.6533000000       15.1480000000 O         0.0000000000         0.0000000000       105.0238349771      115.5248514692       -6.8434641955
atom        17.3244000000       13.7499000000       15.2178000000 O         0.0000000000         0.0000000000      -285.6215323071      173.4201418536     -113.0042025725
atom        15.3441000000       15.0584000000       15.6923000000 N         0.0000000000         0.0000000000         1.4601352361      -17.6805066609     -208.1367063163
atom        16.2433000000       14.3996000000       14.8044000000 N         0.0000000000         0.0000000000       110.5378563715      -52.7358865626      263.7277198458
energy     -1189.4637175598
charge 0
end
begin
comment generated by PY
lattice        30.0000000000         0.0000000000         0.0000000000
lattice         0.0000000000        30.0000000000         0.0000000000
lattice         0.0000000000         0.0000000000        30.0000000000
atom        13.6924000000       16.5052000000       15.6706000000 H         0.0000000000         0.0000000000        70.1421925433      -94.4787048716      -53.0692111693
atom        14.3158000000       15.9517000000       14.0431000000 H         0.0000000000         0.0000000000        -8.4753919394      -36.6915473875      125.0788290158
atom        14.1400000000       15.6231000000       15.1155000000 C         0.0000000000         0.0000000000       -20.7629308867      -68.1655798691       11.5132801711
atom        13.0032000000       14.7236000000       15.0835000000 O         0.0000000000         0.0000000000       145.0873264825       97.9045692916        5.1776554664
atom        17.3751000000       13.9385000000       15.1611000000 O         0.0000000000         0.0000000000      -335.0432700988       50.8430637849      -78.4048956677
atom        15.4077000000       15.0323000000       15.7688000000 N         0.0000000000         0.0000000000       -70.1287554114      -43.2650450264     -236.2300401708
atom        16.1127000000       14.1856000000       14.8882000000 N         0.0000000000         0.0000000000       219.1806062498       93.8533440782      225.9346584756
energy     -1181.2026499563
charge 0
end
begin
comment generated by PY
lattice        30.0000000000         0.0000000000         0.0000000000
lattice         0.0000000000        30.0000000000         0.0000000000
lattice         0.0000000000         0.0000000000        30.0000000000
atom        13.4136000000       16.2403000000       16.0035000000 H         0.0000000000         0.0000000000        83.3558477475      -53.2107501029      -80.5096898949
atom        14.2316000000       16.3598000000       14.3446000000 H         0.0000000000         0.0000000000       -20.5856169323      -73.9512790081       93.1184096641
atom        14.0492000000       15.6880000000       15.2152000000 C         0.0000000000         0.0000000000        61.7938758993      -80.4867154655       33.3120360205
atom        13.4058000000       14.4953000000       15.0289000000 O         0.0000000000         0.0000000000        87.0626800158      141.1936187563       14.1750944018
atom        17.0977000000       13.7493000000       15.2199000000 O         0.0000000000         0.0000000000      -289.9123571410      154.8392853650     -140.5315118960
atom        15.4585000000       15.2964000000       15.7699000000 N         0.0000000000         0.0000000000      -127.6675855777      -60.5710370011     -195.5485813983
atom        16.0226000000       14.3326000000       14.7513000000 N         0.0000000000         0.0000000000       205.9530790490      -27.8134456043      275.9842431028
energy     -1176.3289917533
charge 0
end
begin
comment generated by PY
lattice        30.0000000000         0.0000000000         0.0000000000
lattice         0.0000000000        30.0000000000         0.0000000000
lattice         0.0000000000         0.0000000000        30.0000000000