begin
comment generated by PY
lattice        30.0000000000         0.0000000000         0.0000000000
lattice         0.0000000000        30.0000000000         0.0000000000
lattice         0.0000000000         0.0000000000        30.0000000000
atom        16.8308000000       17.5635000000       14.8461000000 H         0.0000000000         0.0000000000       -72.6037832753      -97.8594331770       25.7019696792
atom        15.1398000000       17.1692000000       15.4390000000 H         0.0000000000         0.0000000000       102.2794668724      -55.5916835573      -39.8369672136
atom        14.6791000000       14.3433000000       16.0370000000 H         0.0000000000         0.0000000000        54.6522028861       10.4531741605     -115.8080362025
atom        15.5455000000       13.3167000000       14.9299000000 H         0.0000000000         0.0000000000       -43.6381814797      126.6085919507        1.5662044487
atom        13.4982000000       15.4464000000       14.0914000000 H         0.0000000000         0.0000000000        52.4986541117     -128.7831436901       -0.9210673714
atom        16.0981000000       16.8078000000       15.0934000000 C         0.0000000000         0.0000000000        42.8225793720     -151.9955265783       -2.2590707778
atom        15.1081000000       14.3233000000       15.0227000000 C         0.0000000000         0.0000000000       -44.3826903320      -17.3534826827       -6.6304553894
atom        11.5542000000       13.9037000000       14.2575000000 O         0.0000000000         0.0000000000       322.3420911232      -98.2836820182       17.9706339955
atom        18.4920000000       15.9197000000       13.7339000000 O         0.0000000000         0.0000000000      -213.9253982898     -217.5638827901      124.2784263724
atom        13.0061000000       12.3349000000       14.9528000000 O         0.0000000000         0.0000000000       -42.4824553657      296.4438006981     -155.2442163621
atom        17.8473000000       13.7872000000       13.8346000000 O         0.0000000000         0.0000000000       -53.2867226495      309.1040957268       98.1188551972
atom        13.9815000000       14.4499000000       14.0279000000 N         0.0000000000         0.0000000000        13.6108485535       34.8084051351      149.0152839519
atom        16.3999000000       15.4479000000       15.0593000000 N         0.0000000000         0.0000000000      -124.8998889736      144.5401464969      -48.7696228948
atom        12.7564000000       13.4667000000       14.3922000000 N         0.0000000000         0.0000000000      -156.1673409740      -98.8555828363      119.8719983440
atom        17.6981000000       15.0118000000       14.1285000000 N         0.0000000000         0.0000000000       163.1810414814      -55.6720537777     -167.0547657774
energy     -2768.2151941405
charge 0
end
begin
comment generated by PY
lattice        30.0000000000         0.0000000000         0.0000000000
lattice         0.0000000000        30.0000000000         0.0000000000
lattice         0.0000000000         0.0000000000        30.0000000000
atom        17.5254000000       17.1527000000       15.5848000000 H         0.0000000000         0.0000000000       -90.6568220209      -76.8148546121       24.9832051251
atom        15.9037000000       17.0006000000       16.4281000000 H         0.0000000000         0.0000000000        74.3787546531      -51.8838010028      -58.2953202399
atom        14.6124000000       14.7666000000       16.2226000000 H         0.0000000000         0.0000000000        51.5289268437      -20.1114477628     -119.5171704009
atom        15.3318000000       13.3939000000       15.4753000000 H         0.0000000000         0.0000000000       -27.3669548069      134.6170297690      -46.4155855118
atom        13.8013000000       15.5024000000       13.7978000000 H         0.0000000000         0.0000000000        26.6748173588      -99.3428276902       37.2319701530
atom        16.6694000000       16.5694000000       15.8562000000 C         0.0000000000         0.0000000000       -31.0147677192     -159.5401563297      -61.8137759729
atom        15.0800000000       14.4809000000       15.2363000000 C         0.0000000000         0.0000000000       -22.5112125179      -20.9377875505       27.7791455900
atom        11.7176000000       14.0243000000       13.7600000000 O         0.0000000000         0.0000000000       302.3893436637     -114.2180469323       95.6998864703
atom        16.8379000000       14.7600000000       13.0173000000 O         0.0000000000         0.0000000000       154.0519919694       57.0710374335      284.4505553315
atom        13.0191000000       12.4557000000       14.7427000000 O         0.0000000000         0.0000000000       -42.5908494151      294.4357248918     -158.0412419284
atom        18.7156000000       14.7903000000       14.2936000000 O         0.0000000000         0.0000000000      -325.8683944474       53.9989819423      -44.2680062712
atom        14.1625000000       14.5516000000       14.0547000000 N         0.0000000000         0.0000000000        22.7971077441       14.8321963896      131.5658881050
atom        16.5113000000       15.2487000000       15.4166000000 N         0.0000000000         0.0000000000       -58.3571487858      171.6473420718      -35.9357376612
atom        12.8250000000       13.5683000000       14.1629000000 N         0.0000000000         0.0000000000      -141.5998884439      -92.3884400582       69.9661573017
atom        17.4616000000       14.9817000000       14.0845000000 N         0.0000000000         0.0000000000       108.1446498033      -91.3651574989     -147.3887431507
energy     -2784.0632185961
charge 0
end
begin
comment generated by PY
lattice        30.0000000000         0.0000000000         0.0000000000
lattice         0.0000000000        30.0000000000         0.0000000000
lattice         0.0000000000         0.0000000000        30.0000000000
atom        17.6676000000       16.3827000000       16.2457000000 H         0.0000000000         0.0000000000       -98.0662889262      -64.5230255544      -20.0162208310
atom        15.9452000000       16.2644000000       16.7446000000 H         0.0000000000         0.0000000000        68.3081445043      -45.9423574401      -65.0121770579
atom        14.6635000000       13.9914000000       16.0764000000 H         0.0000000000         0.0000000000        37.5690551643       29.0377350762     -114.8485786593
atom        15.1457000000       13.1212000000       14.6565000000 H         0.0000000000         0.0000000000       -14.8190323464      132.3970193055       39.2120345479
atom        13.7102000000       15.9356000000       14.4658000000 H         0.0000000000         0.0000000000        17.1475493156     -144.4164965384      -29.8005241483
atom        16.7247000000       15.8861000000       16.1611000000 C         0.0000000000         0.0000000000       -15.6432792907     -137.8190801672     -118.0642569484
atom        14.9981000000       14.1515000000       15.0562000000 C         0.0000000000         0.0000000000        -4.1079334152        3.4242951545       -9.8019303331
atom        11.6949000000       14.2287000000       13.4798000000 O         0.0000000000         0.0000000000       271.7073324433      -82.9042420364      197.2313986456
atom        18.4325000000       13.9216000000       13.9474000000 O         0.0000000000         0.0000000000      -241.9762029873      218.5482071779        8.6275182509
atom        12.7759000000       12.8383000000       14.9477000000 O         0.0000000000         0.0000000000       -13.4187787698      277.2331167933     -193.0621958610
atom        17.6188000000       15.9392000000       13.3685000000 O         0.0000000000         0.0000000000       -29.7429363218     -279.9164048652      151.7990555557
atom        13.9465000000       14.8674000000       14.1688000000 N         0.0000000000         0.0000000000        32.5364629113      -59.6111665372      144.6596283191
atom        16.5605000000       14.7659000000       15.2928000000 N         0.0000000000         0.0000000000       -89.6548543930      174.6180442824      102.8740536862
atom        12.6855000000       13.9003000000       14.2191000000 N         0.0000000000         0.0000000000      -136.4901000632      -87.3986700840        1.1313433045
atom        17.5288000000       14.8116000000       13.9625000000 N         0.0000000000         0.0000000000       216.6524621746       67.2738254330      -94.9288184709
energy     -2752.1986158967
charge 0
end
begin
comment generated by PY
lattice        30.0000000000         0.0000000000         0.0000000000
lattice         0.0000000000        30.0000000000         0.0000000000
lattice         0.0000000000         0.0000000000        30.0000000000
atom        17.6993000000       15.6911000000       16.7122000000 H         0.0000000000         0.0000000000       -78.4112811908      -58.3984698000      -21.6270480238
atom        16.1881000000       14.9234000000       17.3478000000 H         0.0000000000         0.0000000000        61.9448387865       11.3171026818      -86.4080634220
atom        14.5102000000       13.8376000000       15.8703000000 H         0.0000000000         0.0000000000        71.5830679818        3.8853513090     -101.7667019382
atom        15.2079000000       12.7618000000       14.5883000000 H         0.0000000000         0.0000000000       -12.4237301600      137.7851343482       37.2600339979
atom        14.1993000000       15.6774000000       14.2083000000 H         0.0000000000         0.0000000000       -10.4483276455     -145.0866565535      -32.9735073394
atom        16.8676000000       15.0908000000       16.5736000000 C         0.0000000000         0.0000000000         0.7425581609      -99.6339434828     -173.4768245780
atom        15.0607000000       13.8384000000       14.9258000000 C         0.0000000000         0.0000000000       -73.3637945769       -4.4319687722      -35.4350179691
atom        11.8020000000       14.8081000000       13.5759000000 O         0.0000000000         0.0000000000       251.3560945028     -188.4161979750      123.8139815239
atom        18.3454000000       15.8958000000       14.0846000000 O         0.0000000000         0.0000000000      -193.8648196281     -260.0998470792       24.0987235979
atom        12.4349000000       13.2420000000       15.0638000000 O         0.0000000000         0.0000000000        88.8803012626      196.3892887988     -245.1290946006
atom        17.2937000000       14.3571000000       12.9215000000 O         0.0000000000         0.0000000000        51.1978342492      104.0166563576      307.7821380825
atom        14.2223000000       14.5722000000       13.9255000000 N         0.0000000000         0.0000000000        33.8287669883       -5.8268459917      173.1678422131
atom        16.7508000000       14.3868000000       15.3980000000 N         0.0000000000         0.0000000000       -65.2546448381      126.0503086399      131.0398868336
atom        12.7122000000       14.0818000000       14.1182000000 N         0.0000000000         0.0000000000      -205.7159495325       43.8358517292      124.2639830727
atom        17.5500000000       14.8838000000       14.0324000000 N         0.0000000000         0.0000000000        79.9503987003      138.6144419111     -224.6102314505
energy     -2746.9374948273
charge 0
end
begin
comment generated by PY
lattice        30.0000000000         0.0000000000         0.0000000000
lattice         0.0000000000        30.0000000000         0.0000000000
lattice         0.0000000000         0.0000000000        30.0000000000
atom        17.9104000000       15.1909000000       16.6959000000 H         0.0000000000         0.0000000000       -94.8579329659      -52.1612740498      -19.0574729016
atom        16.2377000000       14.6464000000       17.2828000000 H         0.0000000000         0.0000000000        71.6434556972        8.8974639198      -82.0414591503
atom        14.8806000000       13.1530000000       15.5794000000 H         0.0000000000         0.0000000000        43.5994780728       87.2162396881      -90.8106477425
atom        15.2093000000       13.5335000000       13.7618000000 H         0.0000000000         0.0000000000        -0.8517874467       49.4448280445      136.5521697309
atom        13.7231000000       15.1838000000       15.8716000000 H         0.0000000000         0.0000000000        48.9033702411      -33.1784019198     -128.9248165909
atom        16.9772000000       14.7351000000       16.5425000000 C         0.0000000000         0.0000000000       -43.2016699885      -41.3895848008     -199.7764588381
atom        15.1694000000       13.9236000000       14.8326000000 C         0.0000000000         0.0000000000       -21.8315161337       41.0054539229        9.0557817006
atom        11.8344000000       15.1436000000       13.7613000000 O         0.0000000000         0.0000000000       238.6476194459     -192.5887194955      155.8735025120
atom        16.9234000000       15.5071000000       13.0454000000 O         0.0000000000         0.0000000000       154.5607288051     -171.5108573243      223.2109114692
atom        12.4483000000       13.1019000000       14.4490000000 O         0.0000000000         0.0000000000        75.1630290113      316.9238195464      -26.8901460848
atom        18.6784000000       14.3214000000       13.7342000000 O         0.0000000000         0.0000000000      -274.7227404385      124.7412477033       60.4031613672
atom        14.0914000000       14.9664000000       14.8352000000 N         0.0000000000         0.0000000000        10.0289377807     -126.5596639959       80.0497304507
atom        16.6713000000       14.3302000000       15.2244000000 N         0.0000000000         0.0000000000       -84.2549243032       52.5832626932      167.7725400804
atom        12.6731000000       14.3585000000       14.3276000000 N         0.0000000000         0.0000000000      -186.3648025404      -91.1812212133      -82.2242141796
atom        17.5914000000       14.8478000000       13.9099000000 N         0.0000000000         0.0000000000        63.5398047628       27.7573842208     -203.1919818232
energy     -2792.8411751060
charge 0
end
begin
comment generated by PY
lattice        30.0000000000         0.0000000000         0.0000000000
lattice         0.0000000000        30.0000000000         0.0000000000
lattice         0.0000000000         0.0000000000        30.0000000000
atom        17.7338000000       14.9765000000       16.6744000000 H         0.0000000000         0.0000000000      -103.4550145740      -53.1175951042      -67.0093542032
atom        16.0323000000       14.6108000000       17.0297000000 H         0.0000000000         0.0000000000        66.3049617187      -12.5832611446     -100.4957601606
atom        14.6383000000       13.1858000000       15.6307000000 H         0.0000000000         0.0000000000        64.3088034160       66.8255783971      -86.9804418574
atom        14.9502000000       13.0076000000       13.9511000000 H         0.0000000000         0.0000000000        22.4305444632       87.1330681391       93.8685851445
atom        14.2042000000       15.8363000000       15.0035000000 H         0.0000000000         0.0000000000         9.4724348435     -117.0207033076      -60.5555768183
atom        16.7844000000       14.5717000000       16.2639000000 C         0.0000000000         0.0000000000        27.7775404670      -83.8201508283      -86.3466563565
atom        15.1012000000       13.6968000000       14.7856000000 C         0.0000000000         0.0000000000       -17.8108895534       22.5896787431      -40.5580649342
atom        11.8897000000       15.4452000000       14.7532000000 O         0.0000000000         0.0000000000       236.8035001032     -207.1617073805     -114.9918713810
atom        17.8656000000       14.1549000000       12.8070000000 O         0.0000000000         0.0000000000       -93.8602806936       93.5371964512      303.2913919164
atom        12.3252000000       13.3577000000       14.0914000000 O         0.0000000000         0.0000000000       135.8922577531      305.0455609441       49.8536346165
atom        17.8246000000       15.8694000000       14.1371000000 O         0.0000000000         0.0000000000       -77.5350875766     -311.2984094396      -13.8584088126
atom        14.2792000000       14.9359000000       14.3912000000 N         0.0000000000         0.0000000000       -33.8196536712      -88.1439719949       95.7859091626
atom        16.7012000000       13.8281000000       15.0630000000 N         0.0000000000         0.0000000000      -144.3585497098      181.5041876886      176.1842125890
atom        12.7375000000       14.5562000000       14.3391000000 N         0.0000000000         0.0000000000      -201.9793656689      -64.2172097067       83.8314010173
atom        17.5385000000       14.6632000000       13.9347000000 N         0.0000000000         0.0000000000       109.8288243827      180.7289585431     -232.0185999225
energy     -2765.4315549425
charge 0
end
begin
comment generated by PY
lattice        30.0000000000         0.0000000000         0.0000000000
lattice         0.0000000000        30.0000000000         0.0000000000
lattice         0.0000000000         0.0000000000        30.0000000000
atom        17.8526000000       14.4011000000       16.7973000000 H         0.0000000000         0.0000000000       -94.9000236617      -51.2995215568      -72.9557363716
atom        16.3065000000       13.4648000000       16.9993000000 H         0.0000000000         0.0000000000        60.4007727911       56.8543312640      -89.8971742038
atom        14.6213000000       13.3179000000       15.4692000000 H         0.0000000000         0.0000000000        64.0232873131       56.4038548566      -86.6336841232
atom        15.2030000000       12.9686000000       13.8671000000 H         0.0000000000         0.0000000000       -11.3380091342      103.2040409389       78.5255782286
atom        14.3633000000       15.8108000000       14.5027000000 H         0.0000000000         0.0000000000       -43.9357549853     -132.1559493643      -37.8433530817
atom        16.9682000000       13.9615000000       16.3087000000 C         0.0000000000         0.0000000000       -26.3869700748       59.0967230190     -143.6595479760
atom        15.0770000000       13.7745000000       14.6011000000 C         0.0000000000         0.0000000000       -31.0962604697       15.9862944511      -17.0394316893
atom        12.0895000000       15.0588000000       15.6183000000 O         0.0000000000         0.0000000000       136.0691136180     -118.2391655373     -273.2959347638
atom        18.9214000000       14.7154000000       14.1100000000 O         0.0000000000         0.0000000000      -309.0907540453       23.3161959627      -25.4160877152
atom        11.7427000000       14.0528000000       13.6468000000 O         0.0000000000         0.0000000000       233.1276147993      127.9497004164      215.4110405234
atom        17.2091000000       15.1396000000       12.7512000000 O         0.0000000000         0.0000000000        99.8611822687      -79.8866636014      293.3387039764
atom        14.0923000000       14.7967000000       14.0931000000 N         0.0000000000         0.0000000000        76.8525184065      -17.9304263548      113.0467419366
atom        16.6480000000       14.1904000000       15.0109000000 N         0.0000000000         0.0000000000       -49.8393881325      -66.4450274254      183.0487813261
atom        12.5446000000       14.5741000000       14.5153000000 N         0.0000000000         0.0000000000      -228.4461122938        7.9244095670       42.5330170255
atom        17.7125000000       14.8379000000       13.8895000000 N         0.0000000000         0.0000000000       124.6994974796       15.2212003036     -179.1630600316
energy     -2768.5539588666
charge 0
end
begin
comment generated by PY
lattice        30.0000000000         0.0000000000         0.0000000000
lattice         0.0000000000        30.0000000000         0.0000000000
lattice         0.0000000000         0.0000000000        30.0000000000
atom        17.8789000000       14.9003000000       16.4083000000 H         0.0000000000         0.0000000000       -71.4235087019      -77.5394314484      -40.7357208198
atom        16.5348000000       13.9205000000       17.0552000000 H         0.0000000000         0.0000000000        52.6487777064       26.4450348364     -107.2316376006
atom        14.7607000000       12.7604000000       15.5621000000 H         0.0000000000         0.0000000000        35.5490904704       99.8964537656      -83.6432349106
atom        14.8243000000       13.1841000000       13.8234000000 H         0.0000000000         0.0000000000        20.8494104733       44.5650508895      104.2487639742
atom        14.1635000000       15.0543000000       16.0690000000 H         0.0000000000         0.0000000000        -2.4367172437      -31.9299509887     -140.2175353030
atom        17.1228000000       14.1958000000       16.1896000000 C         0.0000000000         0.0000000000       -67.0931701455      -31.7439187199     -141.6083652707
atom        14.9875000000       13.5571000000       14.8038000000 C         0.0000000000         0.0000000000       -29.1748982264       63.3113358394       -3.0399425649
atom        11.8560000000       14.4500000000       15.5275000000 O         0.0000000000         0.0000000000       205.6357933830       79.5375980564     -252.4961617360
atom        17.4805000000       15.8055000000       13.7218000000 O         0.0000000000         0.0000000000        -5.9842646309     -324.7293309352       -7.4435923913
atom        12.3390000000       15.2371000000       13.4023000000 O         0.0000000000         0.0000000000        88.9347494399     -134.7604617134      310.2601012701
atom        18.1762000000       13.8743000000       12.8285000000 O         0.0000000000         0.0000000000      -195.4821583419      160.1031932346      226.6393852452
atom        14.2294000000       14.8550000000       14.9629000000 N         0.0000000000         0.0000000000        14.0972959405     -156.2327841304       82.4561942720
atom        16.7316000000       13.7595000000       14.9076000000 N         0.0000000000         0.0000000000       -30.7075107852       93.1303111999      205.9885822048
atom        12.6481000000       14.7688000000       14.5591000000 N         0.0000000000         0.0000000000      -164.0664034993       51.2769323688      -16.3185672327
atom        17.4722000000       14.5541000000       13.6542000000 N         0.0000000000         0.0000000000       148.6533946613      138.6702677452     -136.8579691368
energy     -2746.6076776140
charge 0
end
begin
comment generated by PY
lattice        30.0000000000         0.0000000000         0.0000000000
lattice         0.0000000000        30.0000000000         0.0000000000
lattice         0.0000000000         0.0000000000        30.0000000000
atom        18.5634000000       13.4085000000       16.0179000000 H         0.0000000000         0.0000000000      -122.9026827701       11.8420657852      -12.8745556634
atom        17.0657000000       12.8826000000       16.8976000000 H         0.0000000000         0.0000000000        31.6100346057       72.2822331453      -98.9231503666
atom        14.7857000000       13.0385000000       15.8565000000 H         0.0000000000         0.0000000000        30.4229251591       89.8789158769      -78.3256125169
atom        14.5933000000       13.3646000000       14.1988000000 H         0.0000000000         0.0000000000        46.7272955321       50.1001435063       84.6202306006
atom        14.0337000000       15.6365000000       16.1451000000 H         0.0000000000         0.0000000000        16.5606722189      -83.2111931602     -107.9062311371
atom        17.4793000000       13.4357000000       16.0498000000 C         0.0000000000         0.0000000000       -94.1201737389       15.0365152399     -143.2589508262
atom        14.9567000000       13.7816000000       15.0836000000 C         0.0000000000         0.0000000000       -50.6435879944       64.5686606893       22.7043924503
atom        12.0202000000       13.9904000000       14.9485000000 O         0.0000000000         0.0000000000       185.4806859230      238.8833259284     -120.4494943148
atom        16.6371000000       14.4991000000       12.5761000000 O         0.0000000000         0.0000000000       168.2887235583        4.4775441505      277.7137933859
atom        12.4140000000       16.0490000000       13.9238000000 O         0.0000000000         0.0000000000        87.6624094703     -290.0107197392      149.4255230988
atom        18.5317000000       14.9169000000       13.6778000000 O         0.0000000000         0.0000000000      -291.4893177928     -100.6369170835        4.1026206292
atom        14.1969000000       15.0798000000       15.2181000000 N         0.0000000000         0.0000000000        17.0572939428     -134.1008119348        7.2088974028
atom        16.7100000000       13.8045000000       15.0074000000 N         0.0000000000         0.0000000000        41.8365930827      -50.5368629178      158.0912032213
atom        12.7576000000       14.9595000000       14.5106000000 N         0.0000000000         0.0000000000      -149.8943281898       57.3121855291       38.2178997013
atom        17.3590000000       14.5584000000       13.6182000000 N         0.0000000000         0.0000000000        83.4036051143       54.1148388635     -180.3465595442
energy     -2777.7557028850
charge 0
end
begin
comment generated by PY
lattice        30.0000000000         0.0000000000         0.0000000000
lattice         0.0000000000        30.0000000000         0.0000000000
lattice         0.0000000000         0.0000000000        30.0000000000
atom        17.7861000000       13.9324000000       16.4493000000 H         0.0000000000         0.0000000000      -101.4943137717      -11.6699059859      -60.6126737087
atom        15.9930000000       13.6070000000       16.6944000000 H         0.0000000000         0.0000000000        86.8545429054       23.2272614698      -79.3633205245
atom        14.4017000000       12.9557000000       15.0658000000 H         0.0000000000         0.0000000000        61.9819158491       78.0072762203      -75.9657371930
atom        14.8145000000       12.8982000000       13.4405000000 H         0.0000000000         0.0000000000        17.5186996074       92.0965517631       83.7536345042
atom        14.7343000000       15.7693000000       14.5460000000 H         0.0000000000         0.0000000000       -65.4788529476     -111.2859512866      -40.4188369622
atom        16.8132000000       13.8004000000       16.0283000000 C         0.0000000000         0.0000000000       -49.5425213602      -47.7981595807     -161.5254226189
atom        14.8917000000       13.5620000000       14.2919000000 C         0.0000000000         0.0000000000       -25.0754223406       44.5271935621       26.8533065266
atom        12.0346000000       14.0950000000       15.1721000000 O         0.0000000000         0.0000000000       196.8081938673      254.8293234980      -99.1683424266
atom        18.1761000000       13.6194000000       12.8149000000 O         0.0000000000         0.0000000000      -171.6464573365      194.3651716341      222.0284331797
atom        12.4440000000       16.3291000000       15.1479000000 O         0.0000000000         0.0000000000        89.8167679495     -313.6041214799      -91.6732382907
atom        17.5607000000       15.6289000000       13.6623000000 O         0.0000000000         0.0000000000       -11.5706131667     -323.5364420902        2.4326557752
atom        14.2012000000       14.8900000000       14.1655000000 N         0.0000000000         0.0000000000        49.8490378362      -65.9674145207       92.7849283498
atom        16.5512000000       13.5881000000       14.6934000000 N         0.0000000000         0.0000000000       -63.3593001180       64.4923926504      201.7074975926
atom        12.7493000000       15.1066000000       14.8467000000 N         0.0000000000         0.0000000000      -142.1065068224       27.7302166082      142.8579308121
atom        17.5430000000       14.3856000000       13.6454000000 N         0.0000000000         0.0000000000       127.4444867883       94.5872075381     -163.6905460764
energy     -2773.2674198781
charge 0
end
begin
comment generated by PY
lattice        30.0000000000         0.0000000000         0.0000000000
lattice         0.0000000000        30.0000000000         0.0000000000
lattice         0.0000000000         0.0000000000        30.0000000000
atom        16.7618000000       13.8209000000       16.4481000000 H         0.0000000000         0.0000000000       -59.0961863061      -19.9743096700      -93.5760861740
atom        15.1049000000       13.2768000000       16.2225000000 H         0.0000000000         0.0000000000        93.1308930881       29.7507941787      -71.2444445956
atom        14.1945000000       12.8880000000       13.4326000000 H         0.0000000000         0.0000000000        36.1453227090      121.7273237019       20.9761266401
atom        14.8159000000       13.7661000000       12.2656000000 H         0.0000000000         0.0000000000        -1.6653068181       42.8484274479      131.4681742982
atom        14.1276000000       16.0166000000       13.4817000000 H         0.0000000000         0.0000000000       -61.8628534081     -128.2480344408        9.2022269195
atom        16.0196000000       13.5915000000       15.7369000000 C         0.0000000000         0.0000000000       -44.1380809755       81.6349437657     -173.8933461358
atom        14.6011000000       13.8989000000       13.3555000000 C         0.0000000000         0.0000000000       -66.5421011628       30.7496858785       -0.2634727359