begin
comment generated by PY
lattice        30.0000000000         0.0000000000         0.0000000000
lattice         0.0000000000        30.0000000000         0.0000000000
lattice         0.0000000000         0.0000000000        30.0000000000
atom        13.0307000000       18.0398700000       14.4516900000 H         0.0000000000         0.0000000000       105.8703279294      -41.7136850287       35.9297033604
atom        16.6403700000       16.7694000000       14.5850100000 H         0.0000000000         0.0000000000       -93.5718493446      -80.9357006599       49.3543154306
atom        15.8782700000       16.2308900000       16.1228900000 H         0.0000000000         0.0000000000        -6.8624104624      -12.0251615484     -128.7457804001
atom        14.8362900000       13.9306000000       16.0621100000 H         0.0000000000         0.0000000000        33.3639083811      -17.5359110269     -125.2593711035
atom        15.6421000000       12.7725600000       14.9490500000 H         0.0000000000         0.0000000000       -57.3955194903      123.2922010401        4.6663940811
atom        13.6217300000       14.6850600000       13.8771100000 H         0.0000000000         0.0000000000        30.9507951405      -80.5604094305       29.7350520936
atom        14.0140300000       17.6950500000       14.8071700000 C         0.0000000000         0.0000000000        48.8637166043     -264.1086815224     -104.5056945442
atom        15.8425000000       16.1551700000       15.0209400000 C         0.0000000000         0.0000000000       -50.2218837758      -60.7911162728      -54.8349849648
atom        15.1466600000       13.7465500000       15.0157100000 C         0.0000000000         0.0000000000         0.9669704150       63.0591028373      -76.1182714867
atom        11.8135700000       13.2006300000       14.0592600000 O         0.0000000000         0.0000000000       272.3005184382      -65.6974389746      105.5445131434
atom        18.1864300000       15.3268100000       14.0835900000 O         0.0000000000         0.0000000000      -205.5575142993     -216.8245345315       24.6524271809
atom        13.2310900000       11.9601300000       15.2345600000 O         0.0000000000         0.0000000000       -66.0202211630      232.6882801539     -174.7359861721
atom        17.5507600000       13.2163900000       13.9489600000 O         0.0000000000         0.0000000000       -53.6967211326      292.1863476812       58.4148582487
atom        14.5340400000       16.6029400000       14.5435800000 N         0.0000000000         0.0000000000        36.4136644437      224.0618521729      134.6597112185
atom        13.9787900000       13.7534300000       14.1195000000 N         0.0000000000         0.0000000000        24.0019715386      -13.8440304352      141.9410749749
atom        16.0606600000       14.7810900000       14.6000300000 N         0.0000000000         0.0000000000       -45.7086999087        7.4972213922       80.2841522035
atom        12.9344900000       12.9217200000       14.5074600000 N         0.0000000000         0.0000000000       -72.0262004288      -59.1298189703       28.4431566037
atom        17.3560200000       14.4126800000       14.1836700000 N         0.0000000000         0.0000000000        98.3826090411      -29.6698075936      -29.4269634676
energy     -3668.2271780962
charge 0
end
begin
comment generated by PY
lattice        30.0000000000         0.0000000000         0.0000000000
lattice         0.0000000000        30.0000000000         0.0000000000
lattice         0.0000000000         0.0000000000        30.0000000000
atom        13.0253700000       18.1287100000       14.4038900000 H         0.0000000000         0.0000000000       107.0792981952      -54.3737947632       38.6933911732
atom        16.5999200000       16.8127100000       14.6910100000 H         0.0000000000         0.0000000000       -98.3618184872      -84.6215045781       39.5216817872
atom        15.7977000000       16.2829500000       16.1913700000 H         0.0000000000         0.0000000000        -6.8549468408      -29.4851989347     -135.2766307860
atom        14.8137700000       14.0165400000       16.0520200000 H         0.0000000000         0.0000000000        38.7890408091      -23.7452398004     -125.7131436429
atom        15.5790300000       12.7199300000       15.1537100000 H         0.0000000000         0.0000000000       -44.9496352087      129.8885312300      -31.3073300457
atom        13.5935500000       14.6637400000       13.8501000000 H         0.0000000000         0.0000000000        29.7677788001      -77.5301465703       29.7831792357
atom        13.9904900000       17.6967800000       14.7788200000 C         0.0000000000         0.0000000000        40.0097555775     -266.2100788057     -112.2589443758
atom        15.7890200000       16.1450700000       15.0637300000 C         0.0000000000         0.0000000000         3.0948295154      -29.1546390271      -67.0413983648
atom        15.1668100000       13.7393400000       15.0275500000 C         0.0000000000         0.0000000000       -18.3101846710       61.3193923771      -41.3295472328
atom        11.8007500000       13.1861400000       14.0382300000 O         0.0000000000         0.0000000000       271.7695262517      -88.9327774862      120.2430744461
atom        18.1964100000       15.2994800000       14.1068700000 O         0.0000000000         0.0000000000      -180.9976654920     -176.2872387122       16.1889101912
atom        13.2639800000       11.9813100000       15.2697000000 O         0.0000000000         0.0000000000       -88.3853606241      207.0398904132     -181.5623727523
atom        17.5524200000       13.2818000000       13.9358000000 O         0.0000000000         0.0000000000       -53.4258217081      235.9188884679       53.4294584510
atom        14.4764200000       16.5764300000       14.5016400000 N         0.0000000000         0.0000000000        41.0138135378      240.0018744449      150.2677412655
atom        13.9599900000       13.7368400000       14.0812100000 N         0.0000000000         0.0000000000        36.6465477117      -27.0917922833      149.6332416616
atom        16.1623100000       14.8074900000       14.6000700000 N         0.0000000000         0.0000000000      -131.6795528985       -8.9150006329      103.2711093468
atom        12.9281900000       12.8730000000       14.5157000000 N         0.0000000000         0.0000000000       -56.8998651193       -4.1534680858       15.2343496598
atom        17.3667900000       14.4262700000       14.1843800000 N         0.0000000000         0.0000000000       111.6757403964       -3.6686843725      -21.7641095640
energy     -3634.4199780360
charge 0
end
begin
comment generated by PY
lattice        30.0000000000         0.0000000000         0.0000000000
lattice         0.0000000000        30.0000000000         0.0000000000
lattice         0.0000000000         0.0000000000        30.0000000000
atom        13.0497800000       18.2199900000       14.3335600000 H         0.0000000000         0.0000000000       102.0896444098      -69.9956431623       43.3714194357
atom        16.4890800000       16.8732500000       14.8105900000 H         0.0000000000         0.0000000000       -81.7398895064      -88.3725732989       29.4228055178
atom        15.6100300000       16.1820300000       16.2305300000 H         0.0000000000         0.0000000000        14.2420017101      -11.9900647612     -139.0238429186
atom        14.7926300000       14.1707600000       15.9726800000 H         0.0000000000         0.0000000000        41.0530069866      -49.3490253471     -111.7771927234
atom        15.5606200000       12.7607900000       15.2045900000 H         0.0000000000         0.0000000000       -38.6720713461      122.7781841602      -31.5583176415
atom        13.5633600000       14.6285000000       13.8319500000 H         0.0000000000         0.0000000000        40.0294762550      -82.7347520103       28.1967245690
atom        13.9664100000       17.6767200000       14.7362000000 C         0.0000000000         0.0000000000        28.4762161770     -244.4971461086     -116.7352047539
atom        15.7473600000       16.1504900000       15.1002900000 C         0.0000000000         0.0000000000       -16.1706184171      -55.0106583641      -52.1781503854
atom        15.1805700000       13.7577700000       15.0325400000 C         0.0000000000         0.0000000000       -20.1209271175       86.0042666280      -40.1047744247
atom        11.8003200000       13.1465300000       14.0255100000 O         0.0000000000         0.0000000000       274.3309894716      -83.3990346394      120.5473539320
atom        18.2541100000       15.3166800000       14.1318200000 O         0.0000000000         0.0000000000      -206.8598470199     -173.2428435781       15.9648692480
atom        13.2974100000       11.9880000000       15.3258800000 O         0.0000000000         0.0000000000      -109.1936492719      206.7386762168     -206.5521237841
atom        17.5583600000       13.2876600000       13.9013700000 O         0.0000000000         0.0000000000       -55.0067136998      274.6493802376       69.4426971397
atom        14.4073900000       16.5548600000       14.4577500000 N         0.0000000000         0.0000000000        46.4302488245      246.3531226755      153.5048412106
atom        13.9682500000       13.7009000000       14.0511100000 N         0.0000000000         0.0000000000        12.9325872888       -2.5491123345      140.6257000354
atom        16.1751300000       14.8170300000       14.6455700000 N         0.0000000000         0.0000000000      -125.6479449970       -1.2063374148       82.1825256894
atom        12.9147100000       12.8654100000       14.4955800000 N         0.0000000000         0.0000000000       -28.6280640526      -18.4326217788       45.7629103885
atom        17.3869300000       14.4748000000       14.1921000000 N         0.0000000000         0.0000000000       122.4419869778      -55.7229668983      -31.1350954291
energy     -3608.4976522477
charge 0
end
begin
comment generated by PY
lattice        30.0000000000         0.0000000000         0.0000000000
lattice         0.0000000000        30.0000000000         0.0000000000
lattice         0.0000000000         0.0000000000        30.0000000000
atom        13.1037000000       18.1908000000       14.2963700000 H         0.0000000000         0.0000000000        79.5541450384      -59.7491922476       38.0217336493
atom        16.4650000000       16.9549800000       14.8957200000 H         0.0000000000         0.0000000000       -88.2920691211     -108.9085379913       24.7018574476
atom        15.4674000000       16.0569500000       16.1846700000 H         0.0000000000         0.0000000000        26.7788658768       14.9108150702     -124.2667085404
atom        14.7122300000       14.2091100000       15.9632500000 H         0.0000000000         0.0000000000        51.7831257495      -55.9966843493     -112.0609615037
atom        15.6457700000       12.8150500000       15.1284100000 H         0.0000000000         0.0000000000       -58.2401693719      126.5140434907      -13.6388692204
atom        13.6103500000       14.5833800000       13.7989700000 H         0.0000000000         0.0000000000        34.2351593049      -76.5585963953       25.0700400031
atom        13.9396300000       17.6647400000       14.6907400000 C         0.0000000000         0.0000000000        43.8735468763     -257.6842821068     -110.0526287915
atom        15.7072500000       16.1526900000       15.1184600000 C         0.0000000000         0.0000000000       -33.3308239036      -80.0394398238      -47.4270662130
atom        15.1689800000       13.8059600000       15.0215700000 C         0.0000000000         0.0000000000         2.4829304861       67.7861056316      -40.4744448243
atom        11.8084100000       13.0914900000       14.0243300000 O         0.0000000000         0.0000000000       284.4113155423      -57.5712922327      114.9790134104
atom        18.3292700000       15.3732600000       14.1543600000 O         0.0000000000         0.0000000000      -247.4457522791     -213.8055910737       14.0263633638
atom        13.3010500000       12.0021500000       15.3598200000 O         0.0000000000         0.0000000000       -97.5609603761      206.6325941632     -213.5149176712
atom        17.5585300000       13.2736000000       13.8644600000 O         0.0000000000         0.0000000000       -40.6202121362      310.5277306358       84.5889777985
atom        14.3656800000       16.5321900000       14.4277100000 N         0.0000000000         0.0000000000        45.5637844303      261.4961295974      153.7786268635
atom        14.0006700000       13.6641200000       14.0366200000 N         0.0000000000         0.0000000000         2.5491434352       19.1088860619      137.2872282455
atom        16.1007100000       14.8173700000       14.7140200000 N         0.0000000000         0.0000000000       -78.5433108520       18.7978113417       43.3531663681
atom        12.9361200000       12.8722000000       14.4908400000 N         0.0000000000         0.0000000000       -41.6199551903      -51.6084490780       60.2880421290
atom        17.4214400000       14.4941000000       14.1930600000 N         0.0000000000         0.0000000000       114.4213111877      -63.8637770892      -34.7019206824
energy     -3593.9359476625
charge 0
end
begin
comment generated by PY
lattice        30.0000000000         0.0000000000         0.0000000000
lattice         0.0000000000        30.0000000000         0.0000000000
lattice         0.0000000000         0.0000000000        30.0000000000
atom        12.9732300000       18.1899900000       14.2007800000 H         0.0000000000         0.0000000000       107.1520829183      -69.2703140009       49.2154070917
atom        16.4383800000       16.8698800000       14.9961000000 H         0.0000000000         0.0000000000       -86.6762630116      -83.4663637689        7.0613961900
atom        15.3273600000       16.0680700000       16.2387900000 H         0.0000000000         0.0000000000        41.4322697833       13.0761606588     -136.1951677733
atom        14.6334400000       14.0019100000       15.9906300000 H         0.0000000000         0.0000000000        59.5002135041      -14.0147115794     -115.3022707518
atom        15.7041200000       12.9152200000       15.0723400000 H         0.0000000000         0.0000000000       -72.4656044898      108.1626152280       -7.6016145687
atom        13.6935400000       14.5446500000       13.6864800000 H         0.0000000000         0.0000000000        23.8810403958      -78.2152203273       36.1751210003
atom        13.9205100000       17.6523800000       14.6437000000 C         0.0000000000         0.0000000000        16.6385355149     -248.6453728260     -113.9485239934
atom        15.6571300000       16.1524300000       15.1195500000 C         0.0000000000         0.0000000000       -50.4177241507     -109.5473130122      -15.3941600666
atom        15.1262000000       13.8363500000       15.0176100000 C         0.0000000000         0.0000000000        32.6636538218       21.7197820133      -52.3129673840
atom        11.8317700000       13.0280400000       14.0295700000 O         0.0000000000         0.0000000000       288.8242550043      -31.3373115390      111.3683121782
atom        18.3646000000       15.4133500000       14.1816100000 O         0.0000000000         0.0000000000      -243.9756166252     -239.0642658472        3.0310602051
atom        13.2796200000       12.0341200000       15.3687200000 O         0.0000000000         0.0000000000       -61.5275428948      198.2277897277     -199.9935190977
atom        17.5536900000       13.2999600000       13.8367300000 O         0.0000000000         0.0000000000       -17.4030433116      315.3520426133       92.9562854639
atom        14.3516100000       16.5124800000       14.4091800000 N         0.0000000000         0.0000000000        47.4056489108      270.3109830100      147.9955517191
atom        14.0434400000       13.6381900000       14.0216000000 N         0.0000000000         0.0000000000         5.8432854924       29.4739052411      147.1509864125
atom        16.0459700000       14.8387000000       14.7606300000 N         0.0000000000         0.0000000000      -104.4913307589       30.8380834394       44.4382523027
atom        12.9869900000       12.8637800000       14.5176600000 N         0.0000000000         0.0000000000       -86.6961787360      -65.6485552195       37.5263350677
atom        17.4723700000       14.4873800000       14.1862600000 N         0.0000000000         0.0000000000       100.3522515313      -47.9687870133      -36.1876177700
energy     -3604.4296689839
charge 0
end
begin
comment generated by PY
lattice        30.0000000000         0.0000000000         0.0000000000
lattice         0.0000000000        30.0000000000         0.0000000000
lattice         0.0000000000         0.0000000000        30.0000000000
atom        13.0051100000       18.0323700000       14.1907600000 H         0.0000000000         0.0000000000        74.3108659511      -37.0298916252       29.1814638478
atom        16.4637100000       16.8447300000       15.0310200000 H         0.0000000000         0.0000000000      -110.0397340248      -81.7351178917        4.0609352805
atom        15.2958600000       16.2106800000       16.1826000000 H         0.0000000000         0.0000000000        31.1811023741      -16.5744186194     -115.6775758402
atom        14.6252300000       13.7871700000       16.0577700000 H         0.0000000000         0.0000000000        50.3572846842       19.0760573224     -127.1919310327
atom        15.6989600000       12.8946300000       15.0497200000 H         0.0000000000         0.0000000000       -74.3647169189      110.8551591180       -7.4064045541
atom        13.7263600000       14.4654000000       13.5161900000 H         0.0000000000         0.0000000000        28.8898977379      -74.3346378663       58.4495936351
atom        13.8791200000       17.6465900000       14.5752800000 C         0.0000000000         0.0000000000        61.1396296826     -281.7630023127      -79.1419523309
atom        15.5816500000       16.1436800000       15.1421800000 C         0.0000000000         0.0000000000         8.5139130703      -62.6699446763      -53.7845673965
atom        15.0851800000       13.8149700000       15.0274000000 C         0.0000000000         0.0000000000        59.6861185078       -0.2326945732      -66.0617587186
atom        11.8852500000       12.9641500000       14.0378600000 O         0.0000000000         0.0000000000       272.0540990219       -4.0157438074       97.8517846252
atom        18.3452400000       15.4100700000       14.2133600000 O         0.0000000000         0.0000000000      -215.5831975899     -236.1706614100       -7.8038293070
atom        13.2622600000       12.0561700000       15.3937300000 O         0.0000000000         0.0000000000       -31.4230270297      191.1245963833     -190.3898845963
atom        17.5548300000       13.3610600000       13.8138000000 O         0.0000000000         0.0000000000         2.0767151531      288.7713761632       94.2608666030
atom        14.3560400000       16.5121500000       14.3966400000 N         0.0000000000         0.0000000000        32.4992417248      269.8259250860      144.3461548124
atom        14.0842700000       13.6225400000       13.9975300000 N         0.0000000000         0.0000000000        -9.1218377225       18.2707869572      161.5358555718
atom        16.0315400000       14.8800900000       14.7832600000 N         0.0000000000         0.0000000000      -148.2708905146        5.3541737399       65.2883272530
atom        13.0149600000       12.8625500000       14.5261600000 N         0.0000000000         0.0000000000      -106.0389019216      -87.4977631885       26.6560703301
atom        17.5253500000       14.5010800000       14.1857000000 N         0.0000000000         0.0000000000        74.1171423700      -21.2346077886      -34.1725261201
energy     -3653.6106970991
charge 0
end
begin
comment generated by PY
lattice        30.0000000000         0.0000000000         0.0000000000
lattice         0.0000000000        30.0000000000         0.0000000000
lattice         0.0000000000         0.0000000000        30.0000000000
atom        12.7917500000       17.9587800000       14.0450200000 H         0.0000000000         0.0000000000       122.5754906410      -40.1607400678       46.2460398495
atom        16.3408500000       16.8720200000       14.9672200000 H         0.0000000000         0.0000000000       -90.7473589031      -83.6008404739       20.1696662377
atom        15.2599100000       16.3175400000       16.3139200000 H         0.0000000000         0.0000000000        31.0091194060      -29.6145275155     -138.2786150140
atom        14.6654900000       13.8145000000       16.0386200000 H         0.0000000000         0.0000000000        42.5413851656        1.6168025136     -121.0727307002
atom        15.6630800000       12.8125000000       15.0118400000 H         0.0000000000         0.0000000000       -61.5475837490      119.1885491476        5.2063680319
atom        13.7524200000       14.3772100000       13.4156200000 H         0.0000000000         0.0000000000        27.3013580728      -55.8851465817       61.7578458916
atom        13.8437800000       17.6328200000       14.5030800000 C         0.0000000000         0.0000000000        22.5717258565     -258.9461433468      -76.7484304685
atom        15.5348800000       16.1620700000       15.1655900000 C         0.0000000000         0.0000000000         4.3127850495      -44.6989371714      -65.8488102171
atom        15.1070000000       13.7567900000       15.0456900000 C         0.0000000000         0.0000000000        41.8219651756       39.1148142871      -90.2733747274
atom        11.9362300000       12.9155500000       14.0246300000 O         0.0000000000         0.0000000000       245.8850819618        9.9074304817       85.5023183738
atom        18.3152900000       15.4007100000       14.2482600000 O         0.0000000000         0.0000000000      -184.6671872406     -185.3636589426       -5.5103608190
atom        13.2708400000       12.0593000000       15.4560400000 O         0.0000000000         0.0000000000       -30.3098276783      199.9517887465     -219.3678526200
atom        17.5691300000       13.4160700000       13.7833400000 O         0.0000000000         0.0000000000       -11.0551144769      279.3747551888      109.1333856446
atom        14.3665700000       16.5322900000       14.3824600000 N         0.0000000000         0.0000000000        13.8002578618      240.9852873571      140.9800057648
atom        14.1031500000       13.6024100000       13.9718800000 N         0.0000000000         0.0000000000       -16.4416604374      -13.2411765123      175.6835469671
atom        16.0205400000       14.8859300000       14.8032500000 N         0.0000000000         0.0000000000      -134.2237888370       -3.6655337597       64.2418120842
atom        13.0263200000       12.8629900000       14.5052200000 N         0.0000000000         0.0000000000       -80.9118160601     -111.4411690277       60.6869565204
atom        17.5215300000       14.5464400000       14.2083300000 N         0.0000000000         0.0000000000        58.0437075687      -63.5159375491      -52.4903230563
energy     -3635.6406329406
charge 0
end
begin
comment generated by PY
lattice        30.0000000000         0.0000000000         0.0000000000
lattice         0.0000000000        30.0000000000         0.0000000000
lattice         0.0000000000         0.0000000000        30.0000000000
atom        12.8724700000       17.8410300000       13.9567100000 H         0.0000000000         0.0000000000        81.4095231953      -18.2585113465       35.2437634260
atom        16.2847200000       16.9486800000       14.9186400000 H         0.0000000000         0.0000000000       -80.4042834073      -99.0229373566       37.9543992311
atom        15.2808400000       16.2496100000       16.2180000000 H         0.0000000000         0.0000000000        23.0165565150      -11.1822429586     -107.8761864160
atom        14.6496300000       13.9455800000       16.0118200000 H         0.0000000000         0.0000000000        60.3220131861      -35.4709783133     -120.7630296612
atom        15.7103500000       12.7584500000       15.0416700000 H         0.0000000000         0.0000000000       -58.8812189254      121.7412380996        2.9442592156
atom        13.7989000000       14.3862200000       13.4269800000 H         0.0000000000         0.0000000000        20.4380214327      -70.9337665974       63.0200244048
atom        13.7720100000       17.6405400000       14.4283700000 C         0.0000000000         0.0000000000        94.3733177148     -292.0167863232      -46.9439283844
atom        15.5261400000       16.1972900000       15.1971600000 C         0.0000000000         0.0000000000       -10.1036630989      -48.4043195573     -119.1010420186
atom        15.1777900000       13.7109800000       15.0403900000 C         0.0000000000         0.0000000000        -8.1816054316       96.3263427345      -62.4079233568
atom        11.9425500000       12.8919500000       13.9749600000 O         0.0000000000         0.0000000000       275.0459409425       -6.4095417536      119.2591881341
atom        18.3185500000       15.4389600000       14.2866600000 O         0.0000000000         0.0000000000      -244.0797517074     -205.3064904611       -0.7089421575
atom        13.2970700000       12.0767100000       15.5093300000 O         0.0000000000         0.0000000000       -37.1985469506      188.1696926851     -242.1192987161
atom        17.5854800000       13.4515200000       13.7519800000 O         0.0000000000         0.0000000000       -57.5395228905      273.7259410899      131.3922141291
atom        14.3716900000       16.5478500000       14.3674300000 N         0.0000000000         0.0000000000       -17.4189752933      243.2250977109      133.5922998741
atom        14.1022300000       13.5662100000       13.9696700000 N         0.0000000000         0.0000000000         5.0809134701      -11.9150162234      167.0538815244
atom        16.0123500000       14.8522600000       14.8250000000 N         0.0000000000         0.0000000000       -75.9643808670      -16.2205918443       35.2491893676
atom        13.0625000000       12.8258800000       14.5127800000 N         0.0000000000         0.0000000000      -109.6337729599      -74.4145341352       43.3208118173
atom        17.4292500000       14.5647900000       14.2412200000 N         0.0000000000         0.0000000000       139.7688198316      -33.6574155717      -69.0408285235
energy     -3615.6437177533
charge 0
end
begin
comment generated by PY
lattice        30.0000000000         0.0000000000         0.0000000000
lattice         0.0000000000        30.0000000000         0.0000000000
lattice         0.0000000000         0.0000000000        30.0000000000
atom        12.7718800000       17.8364300000       13.7195100000 H         0.0000000000         0.0000000000       110.4065461428      -27.8576426843       72.8243365438
atom        16.3879600000       16.9423000000       14.9933800000 H         0.0000000000         0.0000000000       -97.4264647972      -95.2882577433       21.7937470052
atom        15.2474800000       16.1512700000       16.3338800000 H         0.0000000000         0.0000000000        34.8352194888        8.8566420944     -144.0910836757
atom        14.6865700000       13.9046900000       15.9339800000 H         0.0000000000         0.0000000000        61.0540195463      -26.2791719012     -103.4259663758
atom        15.8212700000       12.7719100000       15.1546000000 H         0.0000000000         0.0000000000       -72.3513688765      118.2247082984      -24.6224913752
atom        13.8030400000       14.3917600000       13.5464700000 H         0.0000000000         0.0000000000        21.4739446878      -81.0557649513       50.1389649190
atom        13.7244900000       17.6294200000       14.3738400000 C         0.0000000000         0.0000000000        79.5094005556     -269.8230069328      -67.6327479224
atom        15.5503400000       16.2173700000       15.1792500000 C         0.0000000000         0.0000000000       -28.5019124216      -68.9994558966      -47.5131944182
atom        15.2285800000       13.6955700000       15.0235600000 C         0.0000000000         0.0000000000       -15.1687942987       81.0659601853      -30.1559580646
atom        11.9524200000       12.8798500000       13.9227500000 O         0.0000000000         0.0000000000       275.8103239712      -29.5626721680      147.4275552826
atom        18.2894900000       15.4762600000       14.3308400000 O         0.0000000000         0.0000000000      -257.8872925178     -194.9350417730       -2.5697801011
atom        13.3292500000       12.1097500000       15.5377700000 O         0.0000000000         0.0000000000       -61.2683809620      155.3444963012     -247.8470206706
atom        17.5843500000       13.4809500000       13.7328000000 O         0.0000000000         0.0000000000       -87.1273458164      270.6589546770      142.4745772818
atom        14.3623300000       16.5666800000       14.3587900000 N         0.0000000000         0.0000000000       -12.0985539783      226.2923715811      112.2251337768
atom        14.1132500000       13.5166900000       13.9979500000 N         0.0000000000         0.0000000000        20.0758253345        8.5747728456      148.1793708571
atom        16.0408000000       14.8219500000       14.8335200000 N         0.0000000000         0.0000000000       -57.2205736135      -11.1622239977        5.1171157305