begin
comment generated by PY
lattice        30.0000000000         0.0000000000         0.0000000000
lattice         0.0000000000        30.0000000000         0.0000000000
lattice         0.0000000000         0.0000000000        30.0000000000
atom        14.9165000000       15.7842000000       13.9091000000 H         0.0000000000         0.0000000000         9.7751266428      -77.9392036781      105.3142262229
atom        15.0990000000       14.0065000000       14.4168000000 H         0.0000000000         0.0000000000       -10.6816822644      121.7678233131       48.2986110726
atom        15.0048000000       15.0535000000       14.7175000000 C         0.0000000000         0.0000000000         0.3611171404       50.8481315866      178.1308653473
atom        14.3912000000       15.3773000000       16.0727000000 N         0.0000000000         0.0000000000       232.5646703189      -25.0675829902     -171.7965807408
atom        15.6141000000       15.4945000000       16.0419000000 N         0.0000000000         0.0000000000      -232.0202585378      -69.6092682313     -159.9464219021
energy      -947.9749776905
charge 0
end
begin
comment generated by PY
lattice        30.0000000000         0.0000000000         0.0000000000
lattice         0.0000000000        30.0000000000         0.0000000000
lattice         0.0000000000         0.0000000000        30.0000000000
atom        14.9801000000       15.7920000000       13.9353000000 H         0.0000000000         0.0000000000        -2.3352044289      -78.8183122257      101.2037736130
atom        15.1326000000       13.9926000000       14.3835000000 H         0.0000000000         0.0000000000       -17.3802670849      126.1590577898       56.8640984887
atom        15.0001000000       15.0514000000       14.7301000000 C         0.0000000000         0.0000000000        20.4188929260       52.1913528890      172.6091382715
atom        14.3826000000       15.3792000000       16.0781000000 N         0.0000000000         0.0000000000       248.2799147142      -25.0955157878     -177.2219037535
atom        15.6198000000       15.4948000000       16.0262000000 N         0.0000000000         0.0000000000      -248.9841491870      -74.4364826653     -153.4554296803
energy      -946.4232874282
charge 0
end
begin
comment generated by PY
lattice        30.0000000000         0.0000000000         0.0000000000
lattice         0.0000000000        30.0000000000         0.0000000000
lattice         0.0000000000         0.0000000000        30.0000000000
atom        14.8348000000       15.7383000000       13.8447000000 H         0.0000000000         0.0000000000        28.5950198008      -68.9931569294      120.3567597192
atom        15.0342000000       14.0641000000       14.4465000000 H         0.0000000000         0.0000000000         5.5993227404       92.4454067295       42.7644119560
atom        15.0372000000       15.0556000000       14.7178000000 C         0.0000000000         0.0000000000       -42.4961641746       67.4525727205      169.3576672289
atom        14.3865000000       15.3807000000       16.0913000000 N         0.0000000000         0.0000000000       226.0566133965      -25.3543148918     -173.9194620840
atom        15.6015000000       15.4885000000       16.0256000000 N         0.0000000000         0.0000000000      -217.7549327632      -65.5503606892     -158.5598998806
energy      -951.2024086871
charge 0
end
begin
comment generated by PY
lattice        30.0000000000         0.0000000000         0.0000000000
lattice         0.0000000000        30.0000000000         0.0000000000
lattice         0.0000000000         0.0000000000        30.0000000000
atom        14.7830000000       15.7754000000       13.9750000000 H         0.0000000000         0.0000000000        34.7868009267      -75.1230230525       92.2749354709
atom        14.9722000000       13.9970000000       14.4073000000 H         0.0000000000         0.0000000000        14.0697924471      123.5331681042       52.0433050220
atom        15.0249000000       15.0512000000       14.7302000000 C         0.0000000000         0.0000000000       -54.7483621619       50.8785109989      180.8375829657
atom        14.3873000000       15.3761000000       16.0683000000 N         0.0000000000         0.0000000000       248.6145031659      -24.1927088815     -165.9182736699
atom        15.6194000000       15.4990000000       16.0313000000 N         0.0000000000         0.0000000000      -242.7229943778      -75.0958471691     -159.2383497887
energy      -951.9176781024
charge 0
end
begin
comment generated by PY
lattice        30.0000000000         0.0000000000         0.0000000000
lattice         0.0000000000        30.0000000000         0.0000000000
lattice         0.0000000000         0.0000000000        30.0000000000
atom        14.9628000000       15.7912000000       13.9219000000 H         0.0000000000         0.0000000000        -0.8173301515      -78.7051917743      102.2350845858
atom        15.1687000000       14.0292000000       14.4081000000 H         0.0000000000         0.0000000000       -24.8185370721      114.7699435296       49.3486199855
atom        14.9854000000       15.0500000000       14.7164000000 C         0.0000000000         0.0000000000        29.4104130400       59.9138758135      178.1053059206
atom        14.3914000000       15.3746000000       16.0630000000 N         0.0000000000         0.0000000000       241.2870620177      -25.6534218216     -169.9239530680
atom        15.6224000000       15.4981000000       16.0522000000 N         0.0000000000         0.0000000000      -245.0618708946      -70.3255288077     -159.7651343634
energy      -947.1957447161
charge 0
end
begin
comment generated by PY
lattice        30.0000000000         0.0000000000         0.0000000000
lattice         0.0000000000        30.0000000000         0.0000000000
lattice         0.0000000000         0.0000000000        30.0000000000
atom        15.0465000000       15.7436000000       13.9256000000 H         0.0000000000         0.0000000000       -14.7047852325      -56.0585862302       92.5080415775
atom        15.2778000000       14.0203000000       14.4318000000 H         0.0000000000         0.0000000000       -45.5019651063      124.2607925388       46.0284614007
atom        14.9772000000       15.0605000000       14.7046000000 C         0.0000000000         0.0000000000        65.6614513823       17.1684487814      188.2674847359
atom        14.4209000000       15.3807000000       16.0833000000 N         0.0000000000         0.0000000000       138.0036180847      -33.3145236838     -172.7448819707
atom        15.5861000000       15.4869000000       16.0401000000 N         0.0000000000         0.0000000000      -143.4583591283      -52.0564314063     -154.0595057434
energy      -956.0729059078
charge 0
end
begin
comment generated by PY
lattice        30.0000000000         0.0000000000         0.0000000000
lattice         0.0000000000        30.0000000000         0.0000000000
lattice         0.0000000000         0.0000000000        30.0000000000
atom        14.7266000000       15.7400000000       13.7850000000 H         0.0000000000         0.0000000000        33.6106524968      -68.7995529098      108.3679813046
atom        14.9325000000       14.0103000000       14.2825000000 H         0.0000000000         0.0000000000         9.7266509272       88.4101431957       53.3567935483
atom        14.9984000000       15.0042000000       14.5439000000 C         0.0000000000         0.0000000000       -33.8689845893       59.8328964849      111.1820075263
atom        14.4507000000       15.4014000000       16.1449000000 N         0.0000000000         0.0000000000        90.8395122165      -29.6171739843     -132.8111529150
atom        15.5856000000       15.5156000000       16.1371000000 N         0.0000000000         0.0000000000      -100.3073910512      -49.8265437866     -140.0956294641
energy      -884.6518539701
charge 0
end
begin
comment generated by PY
lattice        30.0000000000         0.0000000000         0.0000000000
lattice         0.0000000000        30.0000000000         0.0000000000
lattice         0.0000000000         0.0000000000        30.0000000000
atom        14.7108000000       15.6440000000       13.6725000000 H         0.0000000000         0.0000000000        18.7569887781      -33.1794272286      102.8164424320
atom        14.9025000000       13.9256000000       14.0616000000 H         0.0000000000         0.0000000000         6.2129562084      108.2518063671       83.0766439668
atom        14.9790000000       14.9694000000       14.4159000000 C         0.0000000000         0.0000000000        -2.4552256204      -13.9497001678       19.1008337350
atom        14.4752000000       15.4386000000       16.2619000000 N         0.0000000000         0.0000000000        43.6170722402      -23.8036833850      -96.5878547520
atom        15.5810000000       15.5211000000       16.1537000000 N         0.0000000000         0.0000000000       -66.1323216063      -37.3185725251     -108.4064653818
energy      -829.6526049007
charge 0
end
begin
comment generated by PY
lattice        30.0000000000         0.0000000000         0.0000000000
lattice         0.0000000000        30.0000000000         0.0000000000
lattice         0.0000000000         0.0000000000        30.0000000000
atom        14.6841000000       15.6771000000       13.5685000000 H         0.0000000000         0.0000000000        24.8155881344      -53.8472880916      122.1430462333
atom        14.8629000000       13.9190000000       13.9822000000 H         0.0000000000         0.0000000000         8.0256919005       95.5940190362       86.4344813961
atom        14.9098000000       14.9373000000       14.3600000000 C         0.0000000000         0.0000000000       -16.2146626920        9.8644185385      -40.9437953153
atom        14.5097000000       15.4363000000       16.2439000000 N         0.0000000000         0.0000000000        45.9878971896      -21.1881493083      -86.9654956199
atom        15.6106000000       15.5490000000       16.2328000000 N         0.0000000000         0.0000000000       -62.6138975931      -30.4234232354      -80.6682366941
energy      -801.4514346855
charge 0
end
begin
comment generated by PY
lattice        30.0000000000         0.0000000000         0.0000000000
lattice         0.0000000000        30.0000000000         0.0000000000
lattice         0.0000000000         0.0000000000        30.0000000000
atom        14.8068000000       15.7197000000       13.6604000000 H         0.0000000000         0.0000000000        14.2066363692      -60.4402935580      110.3848586520
atom        14.9685000000       13.9308000000       14.1381000000 H         0.0000000000         0.0000000000        -0.3883145321      105.9278245896       66.1527842683
atom        14.9816000000       14.9681000000       14.4121000000 C         0.0000000000         0.0000000000         0.5444534014       14.0128758601       27.2066437215
atom        14.4700000000       15.4344000000       16.2646000000 N         0.0000000000         0.0000000000        41.4873422143      -23.1755074286      -99.6176795620
atom        15.5724000000       15.5207000000       16.1497000000 N         0.0000000000         0.0000000000       -55.8499974528      -36.3249894631     -104.1267070798
energy      -833.3623921894
charge 0
end
begin
comment generated by PY
lattice        30.0000000000         0.0000000000         0.0000000000
lattice         0.0000000000        30.0000000000         0.0000000000
lattice         0.0000000000         0.0000000000        30.0000000000
atom        14.8062000000       15.7302000000       13.7345000000 H         0.0000000000         0.0000000000        17.5830712708      -61.5444586001      103.3335970102
atom        15.0273000000       13.9250000000       14.2594000000 H         0.0000000000         0.0000000000        -5.8601507727      123.1324837474       52.3327717938
atom        14.9515000000       14.9930000000       14.4895000000 C         0.0000000000         0.0000000000        -2.5097910697        6.3589770014       90.2615436922
atom        14.4705000000       15.4115000000       16.1722000000 N         0.0000000000         0.0000000000        69.7532912075      -28.4898374643     -126.7275746368
atom        15.5935000000       15.5219000000       16.1617000000 N         0.0000000000         0.0000000000       -78.9664975753      -39.4569077449     -119.2003378594
energy      -860.2954468375
charge 0
end
begin
comment generated by PY
lattice        30.0000000000         0.0000000000         0.0000000000
lattice         0.0000000000        30.0000000000         0.0000000000
lattice         0.0000000000         0.0000000000        30.0000000000
atom        14.7604000000       15.7969000000       13.7104000000 H         0.0000000000         0.0000000000        23.6609373534      -88.5223256563      118.8697623868
atom        15.0222000000       13.9375000000       14.3438000000 H         0.0000000000         0.0000000000        -9.2657250230      120.2025141058       38.4292134099
atom        14.9483000000       14.9992000000       14.5206000000 C         0.0000000000         0.0000000000         3.5590228622       39.3072361900      100.5566057555
atom        14.4713000000       15.4249000000       16.2192000000 N         0.0000000000         0.0000000000        84.4128663305      -30.4310614564     -135.7834373397
atom        15.5991000000       15.4975000000       16.0837000000 N         0.0000000000         0.0000000000      -102.3673115231      -40.5566831831     -122.0721442125
energy      -863.4781667674
charge 0
end
begin
comment generated by PY
lattice        30.0000000000         0.0000000000         0.0000000000
lattice         0.0000000000        30.0000000000         0.0000000000
lattice         0.0000000000         0.0000000000        30.0000000000
atom        14.8368000000       15.6460000000       13.5586000000 H         0.0000000000         0.0000000000        12.3205337677      -36.8681351256      106.0915462351
atom        14.9821000000       13.8682000000       14.0783000000 H         0.0000000000         0.0000000000        -1.8572487815      120.8626026995       68.0274723629
atom        14.8606000000       14.9462000000       14.3407000000 C         0.0000000000         0.0000000000        -4.5287309413      -40.7461401476      -15.1088676646
atom        14.5261000000       15.4511000000       16.3116000000 N         0.0000000000         0.0000000000        44.8394861081      -18.9151756639      -92.1783861174
atom        15.6170000000       15.5325000000       16.1755000000 N         0.0000000000         0.0000000000       -50.7742801530      -24.3327317625      -66.8312448160
energy      -806.5231780711
charge 0
end
begin
comment generated by PY
lattice        30.0000000000         0.0000000000         0.0000000000
lattice         0.0000000000        30.0000000000         0.0000000000
lattice         0.0000000000         0.0000000000        30.0000000000
atom        14.8633000000       15.7377000000       13.7766000000 H         0.0000000000         0.0000000000        -2.9676273592      -67.5410832769      112.7316879031
atom        15.0019000000       14.0270000000       14.2908000000 H         0.0000000000         0.0000000000       -11.3127928985       84.4586305584       54.8953245877
atom        14.8473000000       14.9999000000       14.5757000000 C         0.0000000000         0.0000000000        48.0003034429       65.9722133462      112.7006765664
atom        14.5111000000       15.4263000000       16.2245000000 N         0.0000000000         0.0000000000        89.4404358240      -35.3546843595     -164.6314172627
atom        15.6401000000       15.4934000000       16.0303000000 N         0.0000000000         0.0000000000      -123.1599539093      -47.5355032077     -115.6966948550
energy      -891.8935695414
charge 0
end
begin
comment generated by PY
lattice        30.0000000000         0.0000000000         0.0000000000
lattice         0.0000000000        30.0000000000         0.0000000000
lattice         0.0000000000         0.0000000000        30.0000000000
atom        14.6788000000       15.6478000000       13.5764000000 H         0.0000000000         0.0000000000        20.7560342507      -40.0125957491      111.0934386301
atom        14.8812000000       13.8801000000       14.0289000000 H         0.0000000000         0.0000000000         2.7112185551      113.0875285459       78.7502183821
atom        14.8003000000       14.9396000000       14.3604000000 C         0.0000000000         0.0000000000        -3.9282948069      -25.9144745887      -27.0740108036
atom        14.5658000000       15.4687000000       16.3397000000 N         0.0000000000         0.0000000000        33.5816885505      -22.8842239916      -92.6652954906
atom        15.6475000000       15.5196000000       16.1327000000 N         0.0000000000         0.0000000000       -53.1205934888      -24.2762532165      -70.1043407180
energy      -803.7201334072
charge 0
end
begin
comment generated by PY
lattice        30.0000000000         0.0000000000         0.0000000000
lattice         0.0000000000        30.0000000000         0.0000000000
lattice         0.0000000000         0.0000000000        30.0000000000
atom        14.7252000000       15.7909000000       13.7778000000 H         0.0000000000         0.0000000000        12.3770576158      -85.4213916783      117.5246030922
atom        14.9262000000       13.9529000000       14.2769000000 H         0.0000000000         0.0000000000        -9.7969474554      117.6632688751       60.5156556056
atom        14.8083000000       14.9956000000       14.5877000000 C         0.0000000000         0.0000000000        43.6416619992       53.2192433670       99.7319236807
atom        14.5371000000       15.4358000000       16.2304000000 N         0.0000000000         0.0000000000        79.5590495431      -40.0286112551     -163.5906793404
atom        15.6628000000       15.4890000000       16.0149000000 N         0.0000000000         0.0000000000      -125.7804647632      -45.4319862481     -114.1814030381
energy      -878.9655534177
charge 0
end
begin
comment generated by PY
lattice        30.0000000000         0.0000000000         0.0000000000
lattice         0.0000000000        30.0000000000         0.0000000000
lattice         0.0000000000         0.0000000000        30.0000000000
atom        14.6282000000       15.6846000000       13.5589000000 H         0.0000000000         0.0000000000        21.2901300082      -59.3558365472      104.0392836003
atom        14.7896000000       13.8491000000       14.0214000000 H         0.0000000000         0.0000000000         6.6805931956      115.3586597392       63.4529706541
atom        14.7729000000       14.9228000000       14.3162000000 C         0.0000000000         0.0000000000       -11.9828299228      -25.6327181758      -65.2739461682
atom        14.5893000000       15.4753000000       16.3656000000 N         0.0000000000         0.0000000000        39.9518883324      -12.7836522599      -61.5393442375
atom        15.6577000000       15.5270000000       16.1466000000 N         0.0000000000         0.0000000000       -55.9394585528      -17.5867427563      -40.6790869092
energy      -793.1140797406
charge 0
end
begin
comment generated by PY
lattice        30.0000000000         0.0000000000         0.0000000000
lattice         0.0000000000        30.0000000000         0.0000000000
lattice         0.0000000000         0.0000000000        30.0000000000
atom        14.5727000000       15.7284000000       13.8358000000 H         0.0000000000         0.0000000000        31.8227944095      -63.0412408582       95.9802546971
atom        14.7362000000       13.9584000000       14.3585000000 H         0.0000000000         0.0000000000        17.0437016618      112.0691664130       43.4418414281
atom        14.8448000000       14.9987000000       14.5537000000 C         0.0000000000         0.0000000000        -0.4768179226       28.5120543263      125.7832963822
atom        14.5381000000       15.4314000000       16.2312000000 N         0.0000000000         0.0000000000        60.2622601107      -31.7833227186     -143.1127905150
atom        15.6550000000       15.4948000000       16.0334000000 N         0.0000000000         0.0000000000      -108.6514151988      -45.7567741019     -122.0930789319
energy      -885.9745828015
charge 0
end
begin
comment generated by PY
lattice        30.0000000000         0.0000000000         0.0000000000
lattice         0.0000000000        30.0000000000         0.0000000000
lattice         0.0000000000         0.0000000000        30.0000000000
atom        14.6308000000       15.6797000000       13.6307000000 H         0.0000000000         0.0000000000        26.3727861899      -56.1075310401      123.2982126005
atom        14.8550000000       13.9353000000       14.2146000000 H         0.0000000000         0.0000000000         3.3287526236      106.3987214440       61.2238938739
atom        14.8177000000       14.9730000000       14.4627000000 C         0.0000000000         0.0000000000         4.5592377921       13.0343094338       39.1761622651
atom        14.5494000000       15.4445000000       16.2680000000 N         0.0000000000         0.0000000000        40.6729952175      -29.6285620415     -123.0553364969
atom        15.6543000000       15.5089000000       16.0995000000 N         0.0000000000         0.0000000000       -74.9345787626      -33.6968677962     -100.6428391820
energy      -838.2070952196
charge 0
end
begin
comment generated by PY
lattice        30.0000000000         0.0000000000         0.0000000000
lattice         0.0000000000        30.0000000000         0.0000000000
lattice         0.0000000000         0.0000000000        30.0000000000
atom        14.6931000000       15.6267000000       13.5721000000 H         0.0000000000         0.0000000000        16.9063170292      -33.3764097456      112.7468320905
atom        14.8889000000       13.8895000000       14.0975000000 H         0.0000000000         0.0000000000         0.3164317906      115.0611287088       73.0117262090
atom        14.8429000000       14.9558000000       14.3758000000 C         0.0000000000         0.0000000000         8.7807863551      -30.3775781457       -1.9660284806
atom        14.5443000000       15.4630000000       16.3380000000 N         0.0000000000         0.0000000000        41.1455729112      -22.7131227394      -99.9550260002
atom        15.6309000000       15.5122000000       16.1166000000 N         0.0000000000         0.0000000000       -67.1493311466      -28.5943399281      -83.8371368793
energy      -812.2843536708
charge 0
end
begin
comment generated by PY
lattice        30.0000000000         0.0000000000         0.0000000000
lattice         0.0000000000        30.0000000000         0.0000000000
lattice         0.0000000000         0.0000000000        30.0000000000
atom        14.6205000000       15.7381000000       13.7272000000 H         0.0000000000         0.0000000000        28.3550374856      -70.2303217411      108.6354148707
atom        14.7716000000       13.9746000000       14.2485000000 H         0.0000000000         0.0000000000        12.2019698572       82.2031427967       51.2523838549
atom        14.8486000000       14.9684000000       14.4639000000 C         0.0000000000         0.0000000000        -5.8529876410       54.2905451969       61.2952050172
atom        14.5381000000       15.4330000000       16.2406000000 N         0.0000000000         0.0000000000        39.2518171691      -27.5089256077     -116.5113523521
atom        15.6457000000       15.5174000000       16.1166000000 N         0.0000000000         0.0000000000       -73.9558599314      -38.7546626448     -104.6716114513
energy      -852.0005018400
charge 0
end
begin
comment generated by PY
lattice        30.0000000000         0.0000000000         0.0000000000
lattice         0.0000000000        30.0000000000         0.0000000000
lattice         0.0000000000         0.0000000000        30.0000000000
atom        14.5741000000       15.7808000000       13.8988000000 H         0.0000000000         0.0000000000        33.4129087874      -75.9762591287       84.2687228006
atom        14.7869000000       13.9018000000       14.3211000000 H         0.0000000000         0.0000000000        11.2718898843      133.6142408418       47.0461614224
atom        14.8640000000       14.9964000000       14.5497000000 C         0.0000000000         0.0000000000        -1.0631374933       22.2446958251      128.8913339861
atom        14.5257000000       15.4370000000       16.2347000000 N         0.0000000000         0.0000000000        77.1223764909      -34.6918692876     -141.3639287177
atom        15.6472000000       15.4915000000       16.0314000000 N         0.0000000000         0.0000000000      -120.7437976693      -45.1905082506     -118.8419894914
energy      -879.2602685817
charge 0
end
begin
comment generated by PY
lattice        30.0000000000         0.0000000000         0.0000000000
lattice         0.0000000000        30.0000000000         0.0000000000
lattice         0.0000000000         0.0000000000        30.0000000000
atom        14.5978000000       15.7811000000       13.7555000000 H         0.0000000000         0.0000000000        32.2210040693      -83.0872160475      113.6749992667
atom        14.8121000000       13.9508000000       14.1844000000 H         0.0000000000         0.0000000000         7.4822488042      103.7972582873       68.1493617108
atom        14.8398000000       14.9724000000       14.5078000000 C         0.0000000000         0.0000000000         2.0106237001       56.6944527346       60.3220110210
atom        14.5410000000       15.4482000000       16.2680000000 N         0.0000000000         0.0000000000        54.3990742348      -35.4359418702     -131.6387375257
atom        15.6492000000       15.4973000000       16.0541000000 N         0.0000000000         0.0000000000       -96.1135708085      -41.9682531043     -110.5073344728
energy      -851.9575656761
charge 0
end
begin
comment generated by PY
lattice        30.0000000000         0.0000000000         0.0000000000
lattice         0.0000000000        30.0000000000         0.0000000000
lattice         0.0000000000         0.0000000000        30.0000000000
atom        14.7458000000       15.6454000000       13.5635000000 H         0.0000000000         0.0000000000        18.1917821964      -39.5924267880      106.4177388678
atom        14.8892000000       13.9021000000       14.0119000000 H         0.0000000000         0.0000000000         6.8229843255      102.8589015490       75.1179660425
atom        14.7954000000       14.9333000000       14.3416000000 C         0.0000000000         0.0000000000       -16.2783418409      -21.7818101797      -36.8984976021
atom        14.5602000000       15.4605000000       16.3245000000 N         0.0000000000         0.0000000000        60.8088231134      -18.5874160825      -91.0892861854
atom        15.6520000000       15.5318000000       16.1663000000 N         0.0000000000         0.0000000000       -69.5444708550      -22.8976854383      -53.5479941834
energy      -804.0011858644
charge 0
end
begin
comment generated by PY
lattice        30.0000000000         0.0000000000         0.0000000000
lattice         0.0000000000        30.0000000000         0.0000000000
lattice         0.0000000000         0.0000000000        30.0000000000
atom        14.8271000000       15.6807000000       13.5900000000 H         0.0000000000         0.0000000000         8.1378719914      -51.7888754734      121.9705315688
atom        15.0146000000       13.9098000000       14.1499000000 H         0.0000000000         0.0000000000       -11.2224939648      118.2853917889       67.4086197385
atom        14.8531000000       14.9702000000       14.4232000000 C         0.0000000000         0.0000000000        20.4629954025      -10.8024518396       14.8737814624
atom        14.5305000000       15.4530000000       16.3146000000 N         0.0000000000         0.0000000000        34.8780020994      -26.4271123716     -113.4484909813
atom        15.6174000000       15.5045000000       16.0943000000 N         0.0000000000         0.0000000000       -52.2569955284      -29.2674421043      -90.8045117885
energy      -824.6743312120
charge 0
end
begin
comment generated by PY
lattice        30.0000000000         0.0000000000         0.0000000000
lattice         0.0000000000        30.0000000000         0.0000000000
lattice         0.0000000000         0.0000000000        30.0000000000
atom        14.8617000000       15.7209000000       13.6970000000 H         0.0000000000         0.0000000000         1.0205270196      -62.6643705599      120.5128914506
atom        15.0594000000       13.9844000000       14.2325000000 H         0.0000000000         0.0000000000       -18.4100885724      105.0423029612       63.0415435242
atom        14.8449000000       14.9929000000       14.5257000000 C         0.0000000000         0.0000000000        39.9800819140       29.1323746482       72.0155378173
atom        14.5133000000       15.4278000000       16.2247000000 N         0.0000000000         0.0000000000        72.0507412834      -33.4462519503     -148.0606343945
atom        15.6359000000       15.5020000000       16.0828000000 N         0.0000000000         0.0000000000       -94.6412186446      -38.0637850993     -107.5098383976
energy      -864.5766980786
charge 0
end
begin
comment generated by PY
lattice        30.0000000000         0.0000000000         0.0000000000
lattice         0.0000000000        30.0000000000         0.0000000000
lattice         0.0000000000         0.0000000000        30.0000000000