begin
comment generated by PY
lattice        30.0000000000         0.0000000000         0.0000000000
lattice         0.0000000000        30.0000000000         0.0000000000
lattice         0.0000000000         0.0000000000        30.0000000000
atom        14.1151000000       15.8453000000       14.1960000000 H         0.0000000000         0.0000000000         1.6075685291      -78.8082789323       96.5091625334
atom        14.3110000000       14.1194000000       14.4347000000 H         0.0000000000         0.0000000000       -21.6394044778      106.8717494460       73.6786636175
atom        17.4730000000       15.5720000000       15.8196000000 H         0.0000000000         0.0000000000      -107.8987580872      -21.3666141774      -50.9927794993
atom        16.6454000000       15.2313000000       14.2014000000 H         0.0000000000         0.0000000000       -12.6829544284       16.2346666632      111.5182091516
atom        12.5930000000       15.9040000000       16.2333000000 H         0.0000000000         0.0000000000        37.9628063482      -89.7878480258      -59.7861124628
atom        14.1455000000       15.0685000000       14.9979000000 C         0.0000000000         0.0000000000       -26.1146313287       -2.4522316224       51.1530259651
atom        16.5501000000       15.3843000000       15.2748000000 C         0.0000000000         0.0000000000      -202.6475831448       -9.5705201820       86.2475347462
atom        12.7981000000       15.0052000000       15.6629000000 N         0.0000000000         0.0000000000       184.3902258351       93.3514005110      -54.8184173084
atom        15.3961000000       15.3447000000       15.8800000000 N         0.0000000000         0.0000000000       147.0219276939      -14.4727206197     -253.5096406221
energy     -1528.7466328342
charge 0
end
begin
comment generated by PY
lattice        30.0000000000         0.0000000000         0.0000000000
lattice         0.0000000000        30.0000000000         0.0000000000
lattice         0.0000000000         0.0000000000        30.0000000000
atom        14.0353000000       15.7582000000       14.1565000000 H         0.0000000000         0.0000000000        15.1146318232      -69.6725605146      100.2145810227
atom        14.2406000000       14.0229000000       14.4406000000 H         0.0000000000         0.0000000000       -10.0206181530      119.2256874753       78.9745106755
atom        17.5280000000       15.3956000000       15.8802000000 H         0.0000000000         0.0000000000      -119.0401922963       17.4498378024      -55.5251133161
atom        16.7923000000       15.2578000000       14.2026000000 H         0.0000000000         0.0000000000       -35.1507635232       31.6013405668      113.1838659287
atom        12.4805000000       15.8814000000       16.1487000000 H         0.0000000000         0.0000000000        44.1346324147      -45.4051306416      -30.6086600448
atom        14.1451000000       15.0430000000       15.0069000000 C         0.0000000000         0.0000000000       -41.4794601900       -5.8235596536       44.2667400104
atom        16.5750000000       15.4565000000       15.2828000000 C         0.0000000000         0.0000000000      -178.0976743080     -102.0086441395       82.2389323439
atom        12.7819000000       15.0421000000       15.6733000000 N         0.0000000000         0.0000000000       178.2215025930       33.0706933051      -83.7186701926
atom        15.3955000000       15.2931000000       15.8591000000 N         0.0000000000         0.0000000000       146.3178685791       21.5624557997     -249.0261864277
energy     -1506.2113581999
charge 0
end
begin
comment generated by PY
lattice        30.0000000000         0.0000000000         0.0000000000
lattice         0.0000000000        30.0000000000         0.0000000000
lattice         0.0000000000         0.0000000000        30.0000000000
atom        14.1551000000       15.6902000000       14.1345000000 H         0.0000000000         0.0000000000        -3.4200774375      -65.6599693530       92.4312363976
atom        14.3080000000       13.9695000000       14.4765000000 H         0.0000000000         0.0000000000       -32.2040943847      115.8535199572       64.0367999933
atom        17.3645000000       15.7982000000       15.7870000000 H         0.0000000000         0.0000000000       -75.0390622292      -45.1143013840      -35.4983357683
atom        16.5006000000       15.5553000000       14.2173000000 H         0.0000000000         0.0000000000         9.8083813988      -20.9675240698      109.8503405328
atom        12.7957000000       15.9483000000       16.1687000000 H         0.0000000000         0.0000000000        16.4951638480      -45.7511921184      -31.1951502172
atom        14.1062000000       14.9782000000       14.9479000000 C         0.0000000000         0.0000000000       -38.5371237434        5.4772126436       82.1427690844
atom        16.5372000000       15.4378000000       15.2908000000 C         0.0000000000         0.0000000000      -245.6957995818       27.8480103471       72.6563433126
atom        12.8306000000       15.0881000000       15.6600000000 N         0.0000000000         0.0000000000       206.9149053534       15.4733551125     -103.7834801757
atom        15.4092000000       15.2726000000       15.9193000000 N         0.0000000000         0.0000000000       161.6779837160       12.8406888648     -250.6411231595
energy     -1536.4200580199
charge 0
end
begin
comment generated by PY
lattice        30.0000000000         0.0000000000         0.0000000000
lattice         0.0000000000        30.0000000000         0.0000000000
lattice         0.0000000000         0.0000000000        30.0000000000
atom        14.1651000000       15.6561000000       14.0642000000 H         0.0000000000         0.0000000000        -2.0306253936      -61.3527233006      100.3377900082
atom        14.1760000000       13.9181000000       14.5376000000 H         0.0000000000         0.0000000000        -2.1055304819      129.1975252592       52.1385094317
atom        17.4523000000       15.6449000000       15.8677000000 H         0.0000000000         0.0000000000      -118.6092432577      -22.4812051055      -46.9892058045
atom        16.5529000000       15.6998000000       14.2887000000 H         0.0000000000         0.0000000000       -11.9704110192      -24.5102471147      101.3849601293
atom        12.7520000000       16.0563000000       16.0672000000 H         0.0000000000         0.0000000000        20.9589169725      -86.8485053264      -38.6807403484
atom        14.1142000000       14.9920000000       14.9270000000 C         0.0000000000         0.0000000000       -62.1199887535      -28.0657898966       85.4707765839
atom        16.4582000000       15.4891000000       15.3394000000 C         0.0000000000         0.0000000000       -86.2681867930       -2.1515213721       33.0063646215
atom        12.8602000000       15.0813000000       15.6804000000 N         0.0000000000         0.0000000000       191.9358507145       70.9868586732      -96.7813437819
atom        15.4424000000       15.2226000000       15.8722000000 N         0.0000000000         0.0000000000        70.2088049515       25.2258081833     -189.8876108398
energy     -1556.5303267654
charge 0
end
begin
comment generated by PY
lattice        30.0000000000         0.0000000000         0.0000000000
lattice         0.0000000000        30.0000000000         0.0000000000
lattice         0.0000000000         0.0000000000        30.0000000000
atom        13.9724000000       15.8451000000       14.2112000000 H         0.0000000000         0.0000000000        18.7818124030      -71.0366121634       86.3396427945
atom        14.2395000000       14.1318000000       14.3584000000 H         0.0000000000         0.0000000000       -17.0862033193      101.2071821485       79.1028800253
atom        17.5458000000       15.4347000000       15.7915000000 H         0.0000000000         0.0000000000      -116.1023198390       -0.0418252078      -40.1632585804
atom        16.5971000000       15.0950000000       14.2929000000 H         0.0000000000         0.0000000000        -5.4713740996       29.3091637818       96.7234635569
atom        12.4755000000       15.8264000000       16.3256000000 H         0.0000000000         0.0000000000        56.0972869944      -92.2468618041      -87.6467590682
atom        14.0627000000       15.0582000000       14.9466000000 C         0.0000000000         0.0000000000      -114.4602224785        1.1103204595       46.1900833857
atom        16.5405000000       15.3668000000       15.3236000000 C         0.0000000000         0.0000000000       -98.6910186371      -28.1229947022       40.6883917761
atom        12.7779000000       14.9786000000       15.6345000000 N         0.0000000000         0.0000000000       184.2752926496       89.0959029814      -46.6398554837
atom        15.5173000000       15.4194000000       15.9039000000 N         0.0000000000         0.0000000000        92.6574093870      -29.2743324330     -174.5957484062
energy     -1533.7344140082
charge 0
end
begin
comment generated by PY
lattice        30.0000000000         0.0000000000         0.0000000000
lattice         0.0000000000        30.0000000000         0.0000000000
lattice         0.0000000000         0.0000000000        30.0000000000
atom        14.0055000000       14.2016000000       14.1002000000 H         0.0000000000         0.0000000000        15.7651114481       45.9593041352      127.7090887932
atom        13.8319000000       13.5729000000       15.7185000000 H         0.0000000000         0.0000000000        41.8583322952      116.5553735849      -44.5150631338
atom        17.1903000000       16.0401000000       15.8280000000 H         0.0000000000         0.0000000000      -117.9112640862      -27.3221316961      -18.6803707453
atom        15.4673000000       16.7228000000       15.7883000000 H         0.0000000000         0.0000000000        68.3279115348      -81.9497201201       -5.0454547388
atom        13.1134000000       16.3466000000       14.7046000000 H         0.0000000000         0.0000000000         5.4575246365      -98.3013278747      100.9969700435
atom        14.0857000000       14.5190000000       15.2105000000 C         0.0000000000         0.0000000000       -40.5081100882       55.5569610675      -22.3663006070
atom        16.1130000000       15.8779000000       15.6864000000 C         0.0000000000         0.0000000000       -79.2366414194      -99.5026743512      -47.7901519827
atom        13.0807000000       15.5524000000       15.5499000000 N         0.0000000000         0.0000000000       171.9330265260      -71.8349146273     -147.2417795481
atom        15.6488000000       14.8303000000       15.3679000000 N         0.0000000000         0.0000000000       -65.6852039075      160.8390298819       56.9331849795
energy     -1549.9176304577
charge 0
end
begin
comment generated by PY
lattice        30.0000000000         0.0000000000         0.0000000000
lattice         0.0000000000        30.0000000000         0.0000000000
lattice         0.0000000000         0.0000000000        30.0000000000
atom        13.7067000000       13.6023000000       14.8368000000 H         0.0000000000         0.0000000000        61.3632245346      109.0866107227       50.0109869494
atom        14.0536000000       14.1475000000       16.4197000000 H         0.0000000000         0.0000000000         6.6866647972       49.4421418471      -91.9249070189
atom        17.3111000000       15.9490000000       15.6949000000 H         0.0000000000         0.0000000000      -108.1970281022      -31.2896554646       14.4586493940
atom        15.8839000000       16.0325000000       16.8152000000 H         0.0000000000         0.0000000000        40.8775170486      -44.6037465512      -82.9405611540
atom        12.7618000000       15.9690000000       14.3334000000 H         0.0000000000         0.0000000000        40.4209220207      -66.5507811192      105.9226176385
atom        14.0450000000       14.5010000000       15.4350000000 C         0.0000000000         0.0000000000      -114.2702451061       90.7410612100      -13.2568118295
atom        16.2861000000       15.6653000000       15.8999000000 C         0.0000000000         0.0000000000       -94.1609862742      -27.9217430496      -90.8239210508
atom        12.9748000000       15.5267000000       15.3342000000 N         0.0000000000         0.0000000000       150.8097654996     -107.7770252418      -67.1980153827
atom        15.6335000000       15.1385000000       15.0678000000 N         0.0000000000         0.0000000000        16.4705886423       28.8735376467      175.7526393935
energy     -1534.4866795963
charge 0
end
begin
comment generated by PY
lattice        30.0000000000         0.0000000000         0.0000000000
lattice         0.0000000000        30.0000000000         0.0000000000
lattice         0.0000000000         0.0000000000        30.0000000000
atom        14.1953000000       13.7618000000       15.2930000000 H         0.0000000000         0.0000000000       -16.1757426894      122.8825240015       46.1331642498
atom        13.8899000000       14.9050000000       16.7336000000 H         0.0000000000         0.0000000000        22.8307319287      -11.0481518171     -111.4096991928
atom        17.4548000000       15.8227000000       15.4386000000 H         0.0000000000         0.0000000000       -96.4370016007      -58.3686417562       23.6599118655
atom        16.6134000000       14.8039000000       16.7171000000 H         0.0000000000         0.0000000000         0.9098202523       37.4371686507     -101.5504281886
atom        12.8859000000       15.0279000000       14.0455000000 H         0.0000000000         0.0000000000        -8.0190040464       30.3257448087      100.9690892304
atom        14.0099000000       14.8030000000       15.6795000000 C         0.0000000000         0.0000000000       -87.2081112889       32.2629701956      -61.8383859769
atom        16.5568000000       15.2890000000       15.7440000000 C         0.0000000000         0.0000000000      -124.4342725776       53.7782793658        9.8363627328
atom        12.7882000000       15.3172000000       15.0708000000 N         0.0000000000         0.0000000000       230.3982807786     -117.9432968798        2.8253028244
atom        15.5235000000       15.5101000000       15.2461000000 N         0.0000000000         0.0000000000        78.1349692433      -89.3262735088       91.3732824553
energy     -1553.5211112171
charge 0
end
begin
comment generated by PY
lattice        30.0000000000         0.0000000000         0.0000000000
lattice         0.0000000000        30.0000000000         0.0000000000
lattice         0.0000000000         0.0000000000        30.0000000000
atom        14.0963000000       13.6800000000       15.4768000000 H         0.0000000000         0.0000000000         9.9672249659      138.1734130675       10.5235882940
atom        14.0478000000       14.9571000000       16.8117000000 H         0.0000000000         0.0000000000        -0.9671480341       -3.1454202316     -138.4330062368
atom        17.4878000000       15.5540000000       15.4138000000 H         0.0000000000         0.0000000000      -104.1005924018      -20.3936126123       35.1119653957
atom        16.4860000000       14.7426000000       16.7495000000 H         0.0000000000         0.0000000000         8.6010628245       46.6343432399     -103.7434077744
atom        12.6679000000       15.0670000000       14.0447000000 H         0.0000000000         0.0000000000        32.7355594942       15.3343666214       95.5389274062
atom        14.0711000000       14.8526000000       15.6608000000 C         0.0000000000         0.0000000000       -75.9188247651       12.5499690771      -14.5850450356
atom        16.5199000000       15.2676000000       15.7752000000 C         0.0000000000         0.0000000000      -133.8312369356       21.8350076975      -23.8253077163
atom        12.7951000000       15.2814000000       15.0700000000 N         0.0000000000         0.0000000000       194.8261733458      -81.9361759842       23.3138510644
atom        15.5139000000       15.5447000000       15.2169000000 N         0.0000000000         0.0000000000        68.6881615063     -129.0515708755      116.0977584818
energy     -1535.6210939761
charge 0
end
begin
comment generated by PY
lattice        30.0000000000         0.0000000000         0.0000000000
lattice         0.0000000000        30.0000000000         0.0000000000
lattice         0.0000000000         0.0000000000        30.0000000000
atom        14.3104000000       13.8431000000       15.6560000000 H         0.0000000000         0.0000000000       -21.3308896185      121.9124016478       -9.8301504105
atom        13.8897000000       14.9932000000       16.7621000000 H         0.0000000000         0.0000000000        28.5911676148       17.6058130360     -103.2344251118
atom        17.5046000000       15.4912000000       15.5601000000 H         0.0000000000         0.0000000000      -115.2702277022      -29.8822170382       15.9178552556
atom        16.2254000000       14.4502000000       16.5627000000 H         0.0000000000         0.0000000000        43.3789105050       75.0120834714      -88.2801689576
atom        12.8529000000       14.9234000000       13.9993000000 H         0.0000000000         0.0000000000        10.7557173867       32.7638545352      119.0256759955
atom        14.0633000000       14.9242000000       15.7284000000 C         0.0000000000         0.0000000000      -100.0397929977      -23.3737604740      -64.6235083417
atom        16.4706000000       15.1857000000       15.7427000000 C         0.0000000000         0.0000000000      -124.4369742926       32.2505172334      -17.9366875332
atom        12.8236000000       15.2149000000       15.0622000000 N         0.0000000000         0.0000000000       218.0829090376      -81.7798209809        8.3544696438
atom        15.5345000000       15.6415000000       15.1915000000 N         0.0000000000         0.0000000000        60.2686270064     -144.5090714306      140.6076994600
energy     -1551.1782035235
charge 0
end
begin
comment generated by PY
lattice        30.0000000000         0.0000000000         0.0000000000
lattice         0.0000000000        30.0000000000         0.0000000000
lattice         0.0000000000         0.0000000000        30.0000000000
atom        14.2119000000       13.8010000000       15.8053000000 H         0.0000000000         0.0000000000        -6.0083272343      122.5093979216       -7.5708577994
atom        13.8672000000       15.1465000000       16.8897000000 H         0.0000000000         0.0000000000        19.1492891499      -18.3990076370     -126.0297900723
atom        17.4818000000       15.4007000000       15.5907000000 H         0.0000000000         0.0000000000      -116.4653302865      -20.3026312798      -13.7226835579
atom        16.2573000000       14.2485000000       16.2934000000 H         0.0000000000         0.0000000000        25.3240909246       82.4265891017      -78.8199865268
atom        13.1613000000       15.5275000000       13.9695000000 H         0.0000000000         0.0000000000       -16.5051503344      -46.0486953853      124.0248957032
atom        14.0493000000       14.9133000000       15.8037000000 C         0.0000000000         0.0000000000       -79.7250301603       31.9085306983      -82.9600356105
atom        16.4280000000       15.1154000000       15.6179000000 C         0.0000000000         0.0000000000       -91.8844624109       47.7679674559       51.8896790022
atom        12.9015000000       15.1375000000       14.9892000000 N         0.0000000000         0.0000000000       220.5356425000        1.9644542829       39.7380290145
atom        15.4912000000       15.7583000000       15.3063000000 N         0.0000000000         0.0000000000        45.5795547913     -201.8270520978       93.4507667865
energy     -1539.0203797346
charge 0
end
begin
comment generated by PY
lattice        30.0000000000         0.0000000000         0.0000000000
lattice         0.0000000000        30.0000000000         0.0000000000
lattice         0.0000000000         0.0000000000        30.0000000000
atom        14.2770000000       13.9174000000       16.0571000000 H         0.0000000000         0.0000000000       -29.2838526192      115.5109003610      -39.9539196295
atom        13.7314000000       15.3912000000       16.8538000000 H         0.0000000000         0.0000000000        41.3675896717      -34.3986653671     -130.6459857641
atom        17.4831000000       15.7669000000       15.5148000000 H         0.0000000000         0.0000000000      -106.7925355673      -64.4432972089       -4.4440561595
atom        16.6765000000       14.1532000000       15.9744000000 H         0.0000000000         0.0000000000        -7.9800384744       97.8135461217      -40.5529528820
atom        12.9184000000       14.9776000000       13.8887000000 H         0.0000000000         0.0000000000        13.4273273668       16.5550729935      109.8369429523
atom        14.0275000000       14.9983000000       15.8118000000 C         0.0000000000         0.0000000000       -34.3483162918        6.2281629453      -45.1211835894
atom        16.5565000000       15.1556000000       15.5779000000 C         0.0000000000         0.0000000000      -142.6222332338       38.4107233196       17.3974154072
atom        12.8235000000       15.1686000000       14.9398000000 N         0.0000000000         0.0000000000       194.4442850169      -47.7582703150       55.0875944455
atom        15.4700000000       15.6138000000       15.4017000000 N         0.0000000000         0.0000000000        71.7866571917     -127.9181359107       78.3961021589
energy     -1535.9439504193
charge 0
end
begin
comment generated by PY
lattice        30.0000000000         0.0000000000         0.0000000000
lattice         0.0000000000        30.0000000000         0.0000000000
lattice         0.0000000000         0.0000000000        30.0000000000
atom        14.1095000000       13.9370000000       15.9197000000 H         0.0000000000         0.0000000000         4.0899074440      105.9018067838      -17.8950162655
atom        13.7571000000       15.2408000000       16.9004000000 H         0.0000000000         0.0000000000        44.6906122518       -0.3149989408     -131.0663522701
atom        17.4084000000       15.8182000000       15.5346000000 H         0.0000000000         0.0000000000       -97.1320672753      -71.6547224342       -7.7360732833
atom        16.5906000000       14.1511000000       15.8888000000 H         0.0000000000         0.0000000000         9.6061773808       97.5627163086      -25.1019225529
atom        12.8934000000       14.5070000000       14.1202000000 H         0.0000000000         0.0000000000        19.0794384228       70.4297693439       82.6067319146
atom        14.0483000000       15.0064000000       15.8450000000 C         0.0000000000         0.0000000000       -39.0996444645      -27.7200222156      -85.7359853265
atom        16.5263000000       15.1697000000       15.5757000000 C         0.0000000000         0.0000000000      -154.7814750372       19.6867889828        3.6304430551
atom        12.8899000000       15.2182000000       14.9187000000 N         0.0000000000         0.0000000000       164.0296074582      -92.3939366984       78.5361600326
atom        15.4350000000       15.5846000000       15.3908000000 N         0.0000000000         0.0000000000        49.5182407587     -101.4964780695      102.7624816355
energy     -1559.0374350975
charge 0
end
begin
comment generated by PY
lattice        30.0000000000         0.0000000000         0.0000000000
lattice         0.0000000000        30.0000000000         0.0000000000
lattice         0.0000000000         0.0000000000        30.0000000000
atom        14.1618000000       13.6800000000       15.8315000000 H         0.0000000000         0.0000000000        -8.5715613216      118.4992378219      -40.9817365161
atom        13.9326000000       14.9310000000       16.8151000000 H         0.0000000000         0.0000000000        18.1210194811        8.3815843696     -123.7056825193
atom        17.3846000000       15.9392000000       15.6844000000 H         0.0000000000         0.0000000000       -99.2310814978      -73.4072232645        1.6299193014
atom        16.4691000000       14.6215000000       16.6100000000 H         0.0000000000         0.0000000000         1.2106387164       70.7888240275      -76.2779952388
atom        12.7988000000       15.3617000000       13.9663000000 H         0.0000000000         0.0000000000        26.3305176445      -12.6405428984      131.8726382551
atom        14.0393000000       14.7913000000       15.7226000000 C         0.0000000000         0.0000000000       -99.7718240724       36.3361191555      -28.2999583324
atom        16.4668000000       15.3118000000       15.7916000000 C         0.0000000000         0.0000000000       -77.8838650006       23.0511056754      -41.4951464804
atom        12.8414000000       15.3190000000       15.0887000000 N         0.0000000000         0.0000000000       194.3870559640      -93.2571810502        3.6424284604
atom        15.5432000000       15.4837000000       15.1018000000 N         0.0000000000         0.0000000000        45.4081900864      -77.7517638369      173.6169100095
energy     -1529.9308146174
charge 0
end
begin
comment generated by PY
lattice        30.0000000000         0.0000000000         0.0000000000
lattice         0.0000000000        30.0000000000         0.0000000000
lattice         0.0000000000         0.0000000000        30.0000000000
atom        13.9727000000       13.7551000000       15.4368000000 H         0.0000000000         0.0000000000        27.1682561477      121.4536842185       22.1074667474
atom        14.1031000000       15.0552000000       16.7188000000 H         0.0000000000         0.0000000000         4.4778129043      -27.2467822516     -121.5776758614
atom        17.3199000000       15.9840000000       15.7516000000 H         0.0000000000         0.0000000000       -86.7758957754      -81.0298093802       -9.8100562914
atom        16.3843000000       14.8895000000       16.7844000000 H         0.0000000000         0.0000000000         5.2176084404       33.2556755449      -82.7697982587
atom        12.7929000000       15.6601000000       14.1569000000 H         0.0000000000         0.0000000000        15.6022543606      -34.0321434407       83.1144582756
atom        14.1240000000       14.8576000000       15.6339000000 C         0.0000000000         0.0000000000       -63.8941408753       27.4496256950      -38.1901624743
atom        16.4591000000       15.3224000000       15.8378000000 C         0.0000000000         0.0000000000      -126.1568081080       50.7937017688      -45.0134399209
atom        12.7973000000       15.3024000000       15.1382000000 N         0.0000000000         0.0000000000       212.4778665057      -34.1297965207        0.4281439472
atom        15.5336000000       15.3764000000       15.0929000000 N         0.0000000000         0.0000000000        11.8835564000      -56.5144556340      191.7108568971
energy     -1564.0066250314
charge 0
end
begin
comment generated by PY
lattice        30.0000000000         0.0000000000         0.0000000000
lattice         0.0000000000        30.0000000000         0.0000000000
lattice         0.0000000000         0.0000000000        30.0000000000
atom        14.2010000000       13.7079000000       15.6216000000 H         0.0000000000         0.0000000000       -16.1832272779      117.8919530339      -29.6536333071
atom        14.0360000000       14.8501000000       16.6927000000 H         0.0000000000         0.0000000000         2.0292299694       19.2436642180     -113.9222637521
atom        17.3801000000       15.9603000000       15.7342000000 H         0.0000000000         0.0000000000       -96.4293614317      -75.2927126048        5.1197862396
atom        16.5021000000       14.5885000000       16.6346000000 H         0.0000000000         0.0000000000        -3.3450810152       75.4025731840      -71.8799086713
atom        12.6386000000       15.3031000000       14.0347000000 H         0.0000000000         0.0000000000        37.1601375451       -2.7589420850      122.4797732448
atom        14.0370000000       14.8063000000       15.6206000000 C         0.0000000000         0.0000000000       -85.9398727676       16.5824903334        3.0742179062
atom        16.4835000000       15.3137000000       15.8454000000 C         0.0000000000         0.0000000000       -99.4207612428       17.7730651664      -77.7426566340
atom        12.8043000000       15.3288000000       15.1297000000 N         0.0000000000         0.0000000000       203.5039497769     -100.6132517965      -19.7559723495
atom        15.5672000000       15.4682000000       15.1156000000 N         0.0000000000         0.0000000000        58.6250515044      -68.2288044494      182.2807042628
energy     -1546.8948842628
charge 0
end
begin
comment generated by PY
lattice        30.0000000000         0.0000000000         0.0000000000
lattice         0.0000000000        30.0000000000         0.0000000000
lattice         0.0000000000         0.0000000000        30.0000000000
atom        14.1887000000       13.8454000000       15.8620000000 H         0.0000000000         0.0000000000        -9.4704464442      110.3007386603       -7.6081543634
atom        13.8731000000       15.3006000000       16.8095000000 H         0.0000000000         0.0000000000        14.9644060020      -33.8658695785     -103.7485959586
atom        17.4590000000       15.7368000000       15.6480000000 H         0.0000000000         0.0000000000      -104.8543717206      -63.4549406552      -10.3773684583