begin
comment generated by PY
lattice        30.0000000000         0.0000000000         0.0000000000
lattice         0.0000000000        30.0000000000         0.0000000000
lattice         0.0000000000         0.0000000000        30.0000000000
atom        16.2482000000       16.4760000000       15.8774000000 H         0.0000000000         0.0000000000       -22.8237274113     -125.0896897746        2.1862871911
atom        17.0515000000       15.0162000000       16.4023000000 H         0.0000000000         0.0000000000      -114.1963941773       34.0920695453      -56.8120533546
atom        12.9009000000       14.6772000000       16.8096000000 H         0.0000000000         0.0000000000       105.3079692726        7.6064111504      -74.5772898123
atom        14.6569000000       14.2914000000       13.0484000000 H         0.0000000000         0.0000000000        11.8502681809       28.1223254374      125.5875817200
atom        13.7905000000       14.7698000000       16.1766000000 C         0.0000000000         0.0000000000       124.7072263476        7.8682776040      -44.8522360703
atom        16.1012000000       15.3643000000       15.9229000000 C         0.0000000000         0.0000000000       -90.5090424496      -55.4330311595      -36.5845410387
atom        14.7569000000       14.5574000000       14.1066000000 C         0.0000000000         0.0000000000        46.9868200899       24.9757476924      121.6543765122
atom        14.9149000000       15.0804000000       16.8181000000 N         0.0000000000         0.0000000000       -73.9615023355      -12.8453428455     -266.5136340795
atom        13.5840000000       14.5231000000       14.8340000000 N         0.0000000000         0.0000000000       263.9169191036       64.5641946930      116.5971955513
atom        15.9941000000       14.8432000000       14.5065000000 N         0.0000000000         0.0000000000      -251.2785366210       26.1391576571      113.3148233808
energy     -2096.2534861542
charge 0
end
begin
comment generated by PY
lattice        30.0000000000         0.0000000000         0.0000000000
lattice         0.0000000000        30.0000000000         0.0000000000
lattice         0.0000000000         0.0000000000        30.0000000000
atom        16.8701000000       16.0357000000       16.2494000000 H         0.0000000000         0.0000000000       -88.8568454801      -92.7433002798      -30.6038442102
atom        16.6770000000       14.2468000000       16.3959000000 H         0.0000000000         0.0000000000       -58.3601844771      107.9287856667      -48.8804015493
atom        12.9749000000       14.7358000000       16.8083000000 H         0.0000000000         0.0000000000        76.3664861899        1.3338507649      -64.8616609803
atom        14.6712000000       14.2716000000       12.9944000000 H         0.0000000000         0.0000000000         6.4717533354       39.3452473290      133.3364193979
atom        13.7903000000       14.7563000000       16.1792000000 C         0.0000000000         0.0000000000       159.7078426863       53.4831244697      -87.2551170117
atom        16.1744000000       15.2033000000       16.0226000000 C         0.0000000000         0.0000000000      -141.4366457317      -34.8200503239      -36.8846218140
atom        14.7513000000       14.5550000000       14.0867000000 C         0.0000000000         0.0000000000        52.7916032060       59.2184404320      135.7314806366
atom        14.8887000000       15.2635000000       16.7260000000 N         0.0000000000         0.0000000000       -38.1033072289     -122.9680250915     -207.8291976744
atom        13.6058000000       14.3781000000       14.8692000000 N         0.0000000000         0.0000000000       242.0499564260       90.2675441601      107.1637690972
atom        15.9166000000       15.0403000000       14.4706000000 N         0.0000000000         0.0000000000      -210.6302389258     -101.0458601877      100.0836041081
energy     -2088.0262107616
charge 0
end
begin
comment generated by PY
lattice        30.0000000000         0.0000000000         0.0000000000
lattice         0.0000000000        30.0000000000         0.0000000000
lattice         0.0000000000         0.0000000000        30.0000000000
atom        16.2608000000       16.4883000000       15.9237000000 H         0.0000000000         0.0000000000       -31.6319149908     -128.0759269327       -4.9339685622
atom        16.9405000000       15.0406000000       16.4655000000 H         0.0000000000         0.0000000000       -93.2327589975       26.0168884018      -64.9448426566
atom        13.0070000000       14.8541000000       16.7791000000 H         0.0000000000         0.0000000000        67.5687656731      -16.3607639707      -63.2255583722
atom        14.5479000000       14.5218000000       12.9659000000 H         0.0000000000         0.0000000000        29.4263160615        2.8229626743      140.8803303935
atom        13.8074000000       14.8058000000       16.1477000000 C         0.0000000000         0.0000000000       124.4392380088      -13.0194960725      -25.3530707138
atom        16.0559000000       15.3518000000       15.9375000000 C         0.0000000000         0.0000000000       -62.3957801557      -58.2828992933        6.7319932359
atom        14.7397000000       14.6164000000       14.1016000000 C         0.0000000000         0.0000000000        46.0858307639       -8.0458435903       91.2937249210
atom        14.9379000000       15.0774000000       16.8321000000 N         0.0000000000         0.0000000000       -70.2196388468       11.8551457262     -308.5715743521
atom        13.5723000000       14.4538000000       14.8513000000 N         0.0000000000         0.0000000000       278.6999907197      124.6792338050      115.4235734602
atom        16.0292000000       14.8128000000       14.4920000000 N         0.0000000000         0.0000000000      -288.7402712967       58.4112331311      112.6981357069
energy     -2083.9768948854
charge 0
end
begin
comment generated by PY
lattice        30.0000000000         0.0000000000         0.0000000000
lattice         0.0000000000        30.0000000000         0.0000000000
lattice         0.0000000000         0.0000000000        30.0000000000
atom        16.7922000000       15.9440000000       16.2424000000 H         0.0000000000         0.0000000000       -81.1537871744      -80.6009034017      -41.3929353568
atom        16.7484000000       14.2815000000       16.2531000000 H         0.0000000000         0.0000000000       -81.1327131481       89.8395658586      -35.3972484291
atom        12.8103000000       14.7632000000       16.7270000000 H         0.0000000000         0.0000000000       119.3563791590        8.0471492256      -53.9029135723
atom        14.6247000000       14.3834000000       13.0027000000 H         0.0000000000         0.0000000000        17.4390711957       10.7309485646      137.5176522086
atom        13.7806000000       14.7873000000       16.2093000000 C         0.0000000000         0.0000000000       123.6835540057       45.1665981580      -82.1682099377
atom        16.1175000000       15.1526000000       15.9327000000 C         0.0000000000         0.0000000000       -79.4268874435        4.4520030447      -43.4889147370
atom        14.7723000000       14.5108000000       14.1152000000 C         0.0000000000         0.0000000000        11.4343127915      117.2665147569      102.0854445158
atom        14.8606000000       15.2505000000       16.7717000000 N         0.0000000000         0.0000000000       -58.8410058290     -137.7715256811     -229.6296584198
atom        13.6375000000       14.3980000000       14.8831000000 N         0.0000000000         0.0000000000       253.3929484182       70.9089155911       88.4101872146
atom        15.9678000000       15.0824000000       14.4538000000 N         0.0000000000         0.0000000000      -224.7525619750     -128.0389661167      157.9673195742
energy     -2095.0408774917
charge 0
end
begin
comment generated by PY
lattice        30.0000000000         0.0000000000         0.0000000000
lattice         0.0000000000        30.0000000000         0.0000000000
lattice         0.0000000000         0.0000000000        30.0000000000
atom        16.0827000000       16.5019000000       15.7917000000 H         0.0000000000         0.0000000000        -5.7274881646     -120.4791952680        8.3833666347
atom        17.0469000000       15.2135000000       16.4493000000 H         0.0000000000         0.0000000000      -112.6924990510       13.8903352496      -69.7270992590
atom        12.9048000000       14.4897000000       16.8934000000 H         0.0000000000         0.0000000000       105.0069229143       34.6669085736      -94.6300403994
atom        14.6784000000       14.0967000000       13.1460000000 H         0.0000000000         0.0000000000         5.6185054265       63.3076390752      102.7631210575
atom        13.7708000000       14.7578000000       16.1738000000 C         0.0000000000         0.0000000000       135.7557165053      -17.4069521476      -33.0592485238
atom        16.0925000000       15.4063000000       15.9008000000 C         0.0000000000         0.0000000000       -90.9579814646      -62.0781104609      -21.0541978819
atom        14.7535000000       14.5907000000       14.0949000000 C         0.0000000000         0.0000000000        63.5073384865      -40.1368229774      153.6186967423
atom        14.9289000000       15.0421000000       16.8315000000 N         0.0000000000         0.0000000000       -88.8569988764        7.4842057946     -271.0726303665
atom        13.5760000000       14.5844000000       14.8341000000 N         0.0000000000         0.0000000000       254.9227171404       52.7719130422      120.9297290306
atom        16.0257000000       14.7772000000       14.5143000000 N         0.0000000000         0.0000000000      -266.5760759770       67.9801941188      103.8486029655
energy     -2069.9597556707
charge 0
end
begin
comment generated by PY
lattice        30.0000000000         0.0000000000         0.0000000000
lattice         0.0000000000        30.0000000000         0.0000000000
lattice         0.0000000000         0.0000000000        30.0000000000
atom        16.6276000000       16.2410000000       16.0414000000 H         0.0000000000         0.0000000000       -61.1034037201     -110.2927071156       -9.9195509251
atom        17.0421000000       14.6578000000       16.3447000000 H         0.0000000000         0.0000000000      -108.6338557381       51.3208306794      -41.1615139910
atom        12.7749000000       14.8997000000       16.7126000000 H         0.0000000000         0.0000000000       132.0659497770      -12.1702220325      -64.0956866272
atom        14.5936000000       14.4656000000       13.0505000000 H         0.0000000000         0.0000000000        19.5517905556        0.9234101871      119.6151501590
atom        13.7944000000       14.8130000000       16.1479000000 C         0.0000000000         0.0000000000        92.7774910861       21.1885820850      -24.8573738800
atom        16.1634000000       15.2221000000       15.9639000000 C         0.0000000000         0.0000000000       -94.1585374855        9.8701778015      -68.6028444056
atom        14.7231000000       14.5387000000       14.1152000000 C         0.0000000000         0.0000000000        28.4804899286       78.1910097768      109.8518737319
atom        14.9099000000       15.1830000000       16.8212000000 N         0.0000000000         0.0000000000       -67.5678291222      -81.3072215039     -270.7735615768
atom        13.5899000000       14.3843000000       14.8202000000 N         0.0000000000         0.0000000000       276.4930399804      109.6233676834      114.5539937798
atom        15.9525000000       14.9944000000       14.4985000000 N         0.0000000000         0.0000000000      -217.9047352619      -67.3470806216      135.3889237349
energy     -2073.2040927911
charge 0
end
begin
comment generated by PY
lattice        30.0000000000         0.0000000000         0.0000000000
lattice         0.0000000000        30.0000000000         0.0000000000
lattice         0.0000000000         0.0000000000        30.0000000000
atom        16.8601000000       15.9548000000       16.2239000000 H         0.0000000000         0.0000000000       -95.7237828539      -92.8712130437      -26.4381611637
atom        16.5804000000       14.1982000000       16.3375000000 H         0.0000000000         0.0000000000       -57.4984520519      104.9241543845      -40.5161679454
atom        12.9783000000       14.5496000000       16.9418000000 H         0.0000000000         0.0000000000        95.6869751210       33.0749301995     -105.0974794681
atom        14.7274000000       14.2146000000       13.0374000000 H         0.0000000000         0.0000000000        -5.3283857221       52.4998062648      115.4888749590
atom        13.8242000000       14.7690000000       16.1775000000 C         0.0000000000         0.0000000000       105.9820999907       23.5054804282      -31.2923895274
atom        16.0939000000       15.1532000000       16.0112000000 C         0.0000000000         0.0000000000       -94.9766530880       13.1968085186      -38.8129801832
atom        14.7577000000       14.5772000000       14.0632000000 C         0.0000000000         0.0000000000        62.6563405654       32.2721815195      148.6262028739
atom        14.8735000000       15.3192000000       16.7798000000 N         0.0000000000         0.0000000000       -26.4776546458     -160.2784596011     -251.3819048630
atom        13.6467000000       14.3822000000       14.8516000000 N         0.0000000000         0.0000000000       239.1042034493       94.5343952847      114.1488272296
atom        15.9288000000       15.0203000000       14.4592000000 N         0.0000000000         0.0000000000      -223.4247268859     -100.8589070155      115.2757442095
energy     -2089.3106172652
charge 0
end
begin
comment generated by PY
lattice        30.0000000000         0.0000000000         0.0000000000
lattice         0.0000000000        30.0000000000         0.0000000000
lattice         0.0000000000         0.0000000000        30.0000000000
atom        16.2490000000       16.4461000000       16.0063000000 H         0.0000000000         0.0000000000       -35.5763309018     -123.6518192955      -13.8748331440
atom        17.0245000000       15.0407000000       16.4887000000 H         0.0000000000         0.0000000000      -118.5816675368       20.7695669768      -70.4881812153
atom        12.8679000000       14.9182000000       16.8000000000 H         0.0000000000         0.0000000000       119.3931446630      -18.3642535930      -80.8423150655
atom        14.7457000000       14.2574000000       12.9440000000 H         0.0000000000         0.0000000000        -6.5262857109       23.4087083384      122.9449009244
atom        13.8447000000       14.8396000000       16.1800000000 C         0.0000000000         0.0000000000        91.8512570705      -13.3808487711      -27.7474686267
atom        16.0222000000       15.3347000000       15.9726000000 C         0.0000000000         0.0000000000       -54.3050658000      -32.0339787993        9.5154257751
atom        14.7617000000       14.5099000000       13.9942000000 C         0.0000000000         0.0000000000        70.6890301260       61.0041779679      223.6351694878
atom        14.9374000000       15.0577000000       16.8857000000 N         0.0000000000         0.0000000000       -68.2554951691        9.0025685386     -318.6208964345
atom        13.6525000000       14.5024000000       14.8256000000 N         0.0000000000         0.0000000000       216.3033300854       74.9780672788       83.3253346109
atom        15.9181000000       14.8784000000       14.4909000000 N         0.0000000000         0.0000000000      -214.9919168261       -1.7322586416       72.1531306273
energy     -2080.0888363757
charge 0
end
begin
comment generated by PY
lattice        30.0000000000         0.0000000000         0.0000000000
lattice         0.0000000000        30.0000000000         0.0000000000
lattice         0.0000000000         0.0000000000        30.0000000000
atom        16.5142000000       16.3153000000       16.1246000000 H         0.0000000000         0.0000000000       -48.0385554710     -116.6620857237      -24.4734658260
atom        16.9362000000       14.7180000000       16.4943000000 H         0.0000000000         0.0000000000       -94.0141196660       50.9603151818      -62.6715670674
atom        12.8889000000       14.6804000000       16.7414000000 H         0.0000000000         0.0000000000       117.8825625247        6.1096947818      -68.2171654423
atom        14.5938000000       14.3963000000       13.0007000000 H         0.0000000000         0.0000000000        19.6121185667       16.7127018292      120.4675096443
atom        13.8367000000       14.7410000000       16.1441000000 C         0.0000000000         0.0000000000        60.2093656765       48.7568291131      -26.7156397487
atom        16.1211000000       15.2686000000       15.9996000000 C         0.0000000000         0.0000000000      -108.2311869878        3.1182235294      -13.4448527692
atom        14.7313000000       14.5575000000       14.0580000000 C         0.0000000000         0.0000000000        49.4433082721       57.4553156066      153.0110438441
atom        14.8984000000       15.2196000000       16.8346000000 N         0.0000000000         0.0000000000       -39.5789278195     -105.6366367389     -286.3617551676
atom        13.5997000000       14.4441000000       14.8332000000 N         0.0000000000         0.0000000000       272.4845826740       74.3610889575      107.1418505229
atom        15.9548000000       14.9148000000       14.4788000000 N         0.0000000000         0.0000000000      -229.7703477697      -35.1758565367      101.2646189493
energy     -2084.3038617472
charge 0
end
begin
comment generated by PY
lattice        30.0000000000         0.0000000000         0.0000000000
lattice         0.0000000000        30.0000000000         0.0000000000
lattice         0.0000000000         0.0000000000        30.0000000000
atom        16.7090000000       16.2239000000       16.1740000000 H         0.0000000000         0.0000000000       -68.8156333459     -105.9930148592      -30.1743251962
atom        16.8948000000       14.5333000000       16.4058000000 H         0.0000000000         0.0000000000       -85.8144589983       75.1511955153      -51.8998197814
atom        12.8915000000       14.5998000000       16.7750000000 H         0.0000000000         0.0000000000       102.6818104760       35.3728160369      -69.6935481143
atom        14.6774000000       14.1385000000       13.0601000000 H         0.0000000000         0.0000000000         5.5423951269       47.5849323913      115.7237150889
atom        13.7648000000       14.8111000000       16.1556000000 C         0.0000000000         0.0000000000       139.5494821615      -23.8675192110      -45.2920781033
atom        16.1655000000       15.2640000000       15.9835000000 C         0.0000000000         0.0000000000      -115.7103039278      -26.1461645408      -30.0507755105
atom        14.7229000000       14.5067000000       14.0776000000 C         0.0000000000         0.0000000000        45.6056228588       56.2627387472      151.4124189604
atom        14.9381000000       15.1940000000       16.8319000000 N         0.0000000000         0.0000000000       -73.3899804648      -76.9828676273     -262.5963073927
atom        13.5823000000       14.4237000000       14.8141000000 N         0.0000000000         0.0000000000       260.4962467793       88.5222681950      111.8654566505
atom        15.9461000000       14.9920000000       14.4838000000 N         0.0000000000         0.0000000000      -210.1452706657      -69.9043077079      110.7049933986
energy     -2053.9062657808
charge 0
end
begin
comment generated by PY
lattice        30.0000000000         0.0000000000         0.0000000000
lattice         0.0000000000        30.0000000000         0.0000000000
lattice         0.0000000000         0.0000000000        30.0000000000
atom        16.2390000000       16.4700000000       15.8398000000 H         0.0000000000         0.0000000000       -25.2866567811     -125.1422271509        6.9078214474
atom        17.0690000000       15.1413000000       16.5016000000 H         0.0000000000         0.0000000000      -115.3832364077        8.0533607460      -70.4486991382
atom        12.8154000000       14.7551000000       16.7561000000 H         0.0000000000         0.0000000000       122.6466169701       -8.7091990193      -61.1774882948
atom        14.5523000000       14.5222000000       13.0317000000 H         0.0000000000         0.0000000000        26.1346851785       -3.7853788209      115.2940421464
atom        13.7862000000       14.7501000000       16.1957000000 C         0.0000000000         0.0000000000       115.9567786752       44.1075898482      -59.4838401281
atom        16.1110000000       15.3503000000       15.9423000000 C         0.0000000000         0.0000000000       -89.1627452695      -21.8718675132      -24.1148908094
atom        14.7381000000       14.5806000000       14.0803000000 C         0.0000000000         0.0000000000        38.7788944297       36.7255936611      147.2839584804
atom        14.8826000000       15.1185000000       16.8286000000 N         0.0000000000         0.0000000000       -69.0504077135      -33.9490035091     -260.3106341457
atom        13.6097000000       14.5172000000       14.8516000000 N         0.0000000000         0.0000000000       251.0709075443       63.7805006270       96.3288987982
atom        16.0251000000       14.7893000000       14.4686000000 N         0.0000000000         0.0000000000      -255.7039366261       40.7908061917      109.7202216438
energy     -2070.2102594759
charge 0
end
begin
comment generated by PY
lattice        30.0000000000         0.0000000000         0.0000000000
lattice         0.0000000000        30.0000000000         0.0000000000
lattice         0.0000000000         0.0000000000        30.0000000000
atom        16.9457000000       15.8257000000       16.2192000000 H         0.0000000000         0.0000000000      -101.1637320749      -72.4034624824      -36.6299908043
atom        16.6188000000       14.1218000000       16.1573000000 H         0.0000000000         0.0000000000       -63.5681362948      110.6734390698      -24.9273516037
atom        12.8256000000       14.7509000000       16.7831000000 H         0.0000000000         0.0000000000       115.6921418343       16.9297040080      -76.0686260338
atom        14.7055000000       14.0171000000       13.0830000000 H         0.0000000000         0.0000000000         7.5153332823       75.0382942922      119.9416957342
atom        13.7785000000       14.8290000000       16.1682000000 C         0.0000000000         0.0000000000        95.4918692558       11.4327773852      -16.0646737807
atom        16.1394000000       15.1328000000       15.9185000000 C         0.0000000000         0.0000000000       -55.2052396529       -7.2238286300      -59.9981605131
atom        14.7745000000       14.5224000000       14.1003000000 C         0.0000000000         0.0000000000        26.1242496357       30.3177986090      120.8953891377
atom        14.8441000000       15.2869000000       16.8426000000 N         0.0000000000         0.0000000000       -64.8723098846     -141.1758608867     -273.4986869600
atom        13.6254000000       14.3546000000       14.8834000000 N         0.0000000000         0.0000000000       268.1599533881      113.4296014642       91.6688433239
atom        15.9689000000       15.1077000000       14.4416000000 N         0.0000000000         0.0000000000      -228.1743364284     -137.0180688295      154.6816845603
energy     -2047.7106464219
charge 0
end
begin
comment generated by PY
lattice        30.0000000000         0.0000000000         0.0000000000
lattice         0.0000000000        30.0000000000         0.0000000000
lattice         0.0000000000         0.0000000000        30.0000000000
atom        16.2030000000       16.5344000000       15.7497000000 H         0.0000000000         0.0000000000        -6.6038419822     -132.8025989192       18.2161654950
atom        17.0878000000       15.0281000000       16.3429000000 H         0.0000000000         0.0000000000      -108.2998728691       42.8241300674      -47.1505010883
atom        12.9114000000       14.6424000000       16.8385000000 H         0.0000000000         0.0000000000        89.8525628260        2.2535265482      -72.6461872948
atom        14.6894000000       14.6804000000       12.9753000000 H         0.0000000000         0.0000000000         4.5085447230      -23.6591464149      136.7057852246
atom        13.7425000000       14.7235000000       16.1860000000 C         0.0000000000         0.0000000000       186.5969948103       37.7542322463      -63.9915913531
atom        16.1688000000       15.3990000000       15.8919000000 C         0.0000000000         0.0000000000      -113.0942734872      -84.3674229931      -70.0058245905
atom        14.7538000000       14.6127000000       14.0979000000 C         0.0000000000         0.0000000000        40.4836064292       38.2764770156      148.1229514957
atom        14.9066000000       15.1112000000       16.7908000000 N         0.0000000000         0.0000000000      -109.8073983103      -30.0493907776     -233.7411503874
atom        13.5655000000       14.5200000000       14.8276000000 N         0.0000000000         0.0000000000       255.5857645913       67.1090171759      103.8929110293
atom        16.0042000000       14.7476000000       14.5828000000 N         0.0000000000         0.0000000000      -239.2226736705       82.6609029909       80.5967184089
energy     -2062.2256989100
charge 0
end
begin
comment generated by PY
lattice        30.0000000000         0.0000000000         0.0000000000
lattice         0.0000000000        30.0000000000         0.0000000000
lattice         0.0000000000         0.0000000000        30.0000000000
atom        16.8025000000       16.0777000000       16.2661000000 H         0.0000000000         0.0000000000       -86.9856666459      -81.3149740140      -51.0113423991
atom        16.9302000000       14.5227000000       16.4150000000 H         0.0000000000         0.0000000000       -98.2624832492       62.1558997589      -62.1872088284
atom        12.8866000000       14.9070000000       16.7858000000 H         0.0000000000         0.0000000000        85.3141333517      -13.7340610470      -62.3008653529
atom        14.7922000000       14.1287000000       13.1260000000 H         0.0000000000         0.0000000000       -13.2053155319       51.1945667952      116.2043584227
atom        13.7355000000       14.8128000000       16.1905000000 C         0.0000000000         0.0000000000       180.7435672627       35.9318950674      -89.3701331493
atom        16.1598000000       15.2264000000       15.9324000000 C         0.0000000000         0.0000000000       -93.4350306901      -27.0858879299      -14.1365754955
atom        14.7809000000       14.5264000000       14.1419000000 C         0.0000000000         0.0000000000        48.0389753875       45.8719179720      102.2936556897
atom        14.8812000000       15.1688000000       16.7534000000 N         0.0000000000         0.0000000000       -60.5017408661      -74.5606167828     -217.0062873223
atom        13.5885000000       14.4192000000       14.8693000000 N         0.0000000000         0.0000000000       251.0619114155       83.3618063581      113.7215886556
atom        15.9601000000       15.0256000000       14.4530000000 N         0.0000000000         0.0000000000      -212.7670704341      -81.8206461779      163.7933097795
energy     -2090.8863915620
charge 0
end
begin
comment generated by PY
lattice        30.0000000000         0.0000000000         0.0000000000
lattice         0.0000000000        30.0000000000         0.0000000000
lattice         0.0000000000         0.0000000000        30.0000000000
atom        16.7606000000       16.1970000000       16.0036000000 H         0.0000000000         0.0000000000       -91.4666021138      -97.2798630430      -20.0013183921
atom        16.9648000000       14.6820000000       16.3101000000 H         0.0000000000         0.0000000000      -106.5001175008       48.5208086878      -43.5443626313
atom        12.9274000000       14.4775000000       16.8300000000 H         0.0000000000         0.0000000000        86.8657473645       34.5562281056      -67.3489092961
atom        14.6594000000       14.4556000000       13.0750000000 H         0.0000000000         0.0000000000         5.1970505332       16.2054241295      124.4176440442
atom        13.7468000000       14.7331000000       16.2083000000 C         0.0000000000         0.0000000000       157.2158915940       25.0244447065      -71.0821280265
atom        16.1078000000       15.2501000000       15.8637000000 C         0.0000000000         0.0000000000        -7.0092779031      -21.3362750434      -41.1876785382
atom        14.7652000000       14.6191000000       14.1441000000 C         0.0000000000         0.0000000000        48.6087943650        5.2873833057       73.0277167129
atom        14.8289000000       15.2334000000       16.8077000000 N         0.0000000000         0.0000000000       -59.9648660485     -106.7718326146     -248.0212831209
atom        13.6138000000       14.4588000000       14.8804000000 N         0.0000000000         0.0000000000       250.3218148605       86.3173115071      113.5160432583
atom        16.0425000000       14.8773000000       14.4561000000 N         0.0000000000         0.0000000000      -283.2679451511        9.4766896192      180.2242759898
energy     -2091.2035161045
charge 0
end
begin
comment generated by PY