begin
comment generated by PY
lattice        30.0000000000         0.0000000000         0.0000000000
lattice         0.0000000000        30.0000000000         0.0000000000
lattice         0.0000000000         0.0000000000        30.0000000000
atom        16.0218000000       14.3522000000       15.4850000000 H         0.0000000000         0.0000000000       -77.3291200985       75.6431230569      -30.1056655974
atom        15.5996000000       15.7592000000       14.3502000000 H         0.0000000000         0.0000000000       -34.8789141066      -65.8389336950       83.9946762606
atom        15.2956000000       15.1007000000       15.1650000000 C         0.0000000000         0.0000000000      -234.1100240835       20.4401170148      112.4764316105
atom        14.1186000000       15.2035000000       15.7304000000 N         0.0000000000         0.0000000000       346.3181582886      -30.2444294373     -166.3657422736
energy      -668.9098692124
charge 0
end
begin
comment generated by PY
lattice        30.0000000000         0.0000000000         0.0000000000
lattice         0.0000000000        30.0000000000         0.0000000000
lattice         0.0000000000         0.0000000000        30.0000000000
atom        16.0421000000       14.3288000000       15.4841000000 H         0.0000000000         0.0000000000       -84.2818387916       82.0665099342      -30.2227746284
atom        15.5841000000       15.7494000000       14.3614000000 H         0.0000000000         0.0000000000       -32.4095555947      -62.4548378926       80.9124462819
atom        15.2859000000       15.1020000000       15.1719000000 C         0.0000000000         0.0000000000      -224.8304048888       11.2893834819      110.7590280195
atom        14.1266000000       15.2047000000       15.7238000000 N         0.0000000000         0.0000000000       341.5223223357      -30.9011555235     -161.4483996729
energy      -674.3325285878
charge 0
end
begin
comment generated by PY
lattice        30.0000000000         0.0000000000         0.0000000000
lattice         0.0000000000        30.0000000000         0.0000000000
lattice         0.0000000000         0.0000000000        30.0000000000
atom        16.1190000000       14.3250000000       15.4478000000 H         0.0000000000         0.0000000000       -95.8241982114       84.0501765628      -26.1879769376
atom        15.5281000000       15.7738000000       14.3729000000 H         0.0000000000         0.0000000000       -22.0113850128      -65.8891876804       77.8111451672
atom        15.3001000000       15.0947000000       15.1708000000 C         0.0000000000         0.0000000000      -233.9101749585       20.0622889078      108.5629391405
atom        14.1128000000       15.2095000000       15.7265000000 N         0.0000000000         0.0000000000       351.7455581827      -38.2233008508     -160.1865073701
energy      -660.0905225121
charge 0
end
begin
comment generated by PY
lattice        30.0000000000         0.0000000000         0.0000000000
lattice         0.0000000000        30.0000000000         0.0000000000
lattice         0.0000000000         0.0000000000        30.0000000000
atom        16.1086000000       14.3364000000       15.4246000000 H         0.0000000000         0.0000000000       -92.6794059235       82.8742680909      -22.5225901618
atom        15.4983000000       15.7636000000       14.3608000000 H         0.0000000000         0.0000000000       -16.9822320791      -62.9662504743       78.1027629834
atom        15.3064000000       15.0977000000       15.1704000000 C         0.0000000000         0.0000000000      -243.1853490058       16.3297532005      103.6999995249
atom        14.1103000000       15.2068000000       15.7294000000 N         0.0000000000         0.0000000000       352.8466639479      -36.2377477565     -159.2802492859
energy      -660.1499677631
charge 0
end
begin
comment generated by PY
lattice        30.0000000000         0.0000000000         0.0000000000
lattice         0.0000000000        30.0000000000         0.0000000000
lattice         0.0000000000         0.0000000000        30.0000000000
atom        16.1137000000       14.3087000000       15.3829000000 H         0.0000000000         0.0000000000       -93.0514479899       90.3219948442      -15.9666302038
atom        15.3891000000       15.7367000000       14.3667000000 H         0.0000000000         0.0000000000         1.3628112537      -51.4926649888       68.9459532122
atom        15.3002000000       15.1067000000       15.1835000000 C         0.0000000000         0.0000000000      -255.2896279774       -5.1411504173       94.4955042678
atom        14.1231000000       15.2031000000       15.7207000000 N         0.0000000000         0.0000000000       346.9775647136      -33.6881563775     -147.4746503367
energy      -669.7361026168
charge 0
end
begin
comment generated by PY
lattice        30.0000000000         0.0000000000         0.0000000000
lattice         0.0000000000        30.0000000000         0.0000000000
lattice         0.0000000000         0.0000000000        30.0000000000
atom        16.0455000000       14.2876000000       15.4127000000 H         0.0000000000         0.0000000000       -84.1316675056       93.3947370447      -20.0855574429
atom        15.5344000000       15.7088000000       14.3166000000 H         0.0000000000         0.0000000000       -24.6107692630      -49.0104205815       83.3909153593
atom        15.2911000000       15.1278000000       15.1694000000 C         0.0000000000         0.0000000000      -237.2824457119      -28.2395366676      100.4186863823
atom        14.1254000000       15.1884000000       15.7343000000 N         0.0000000000         0.0000000000       346.0257824804      -16.1448797957     -163.7244442987
energy      -668.7934919440
charge 0
end
begin
comment generated by PY
lattice        30.0000000000         0.0000000000         0.0000000000
lattice         0.0000000000        30.0000000000         0.0000000000
lattice         0.0000000000         0.0000000000        30.0000000000
atom        16.0052000000       14.2765000000       15.4439000000 H         0.0000000000         0.0000000000       -78.2930430907       95.3364777676      -25.3810423566
atom        15.6308000000       15.6832000000       14.2932000000 H         0.0000000000         0.0000000000       -40.3578793805      -45.1803155867       88.3371010489
atom        15.2949000000       15.1390000000       15.1556000000 C         0.0000000000         0.0000000000      -230.6477119610      -43.5014804636      112.6354403490
atom        14.1181000000       15.1814000000       15.7455000000 N         0.0000000000         0.0000000000       349.2986344322       -6.6546617173     -175.5918221019
energy      -659.2505118025
charge 0
end
begin
comment generated by PY
lattice        30.0000000000         0.0000000000         0.0000000000
lattice         0.0000000000        30.0000000000         0.0000000000
lattice         0.0000000000         0.0000000000        30.0000000000
atom        15.9279000000       14.2527000000       15.5108000000 H         0.0000000000         0.0000000000       -65.5411752045       99.6216450706      -37.7975287840
atom        15.6626000000       15.7023000000       14.2681000000 H         0.0000000000         0.0000000000       -45.5473889231      -53.6816623469       98.4458711700
atom        15.2859000000       15.1439000000       15.1549000000 C         0.0000000000         0.0000000000      -229.7233297773      -45.3022068949      116.3318767000
atom        14.1291000000       15.1776000000       15.7432000000 N         0.0000000000         0.0000000000       340.8122939049       -0.6378758288     -176.9798190860
energy      -661.7006770260
charge 0
end
begin
comment generated by PY
lattice        30.0000000000         0.0000000000         0.0000000000
lattice         0.0000000000        30.0000000000         0.0000000000
lattice         0.0000000000         0.0000000000        30.0000000000
atom        15.9215000000       14.2720000000       15.5219000000 H         0.0000000000         0.0000000000       -62.5562135248       95.3024922491      -39.4746852318
atom        15.6312000000       15.7466000000       14.2486000000 H         0.0000000000         0.0000000000       -39.8652951037      -65.5261043959      104.9688173405
atom        15.2874000000       15.1302000000       15.1641000000 C         0.0000000000         0.0000000000      -237.0273777014      -21.3615627547      104.9216136485
atom        14.1305000000       15.1848000000       15.7359000000 N         0.0000000000         0.0000000000       339.4483093904       -8.4148250985     -170.4153688177
energy      -663.1051867363
charge 0
end
begin
comment generated by PY
lattice        30.0000000000         0.0000000000         0.0000000000
lattice         0.0000000000        30.0000000000         0.0000000000
lattice         0.0000000000         0.0000000000        30.0000000000
atom        16.0033000000       14.3229000000       15.4585000000 H         0.0000000000         0.0000000000       -73.6644895999       83.2666896163      -26.4403218182
atom        15.6164000000       15.7606000000       14.2523000000 H         0.0000000000         0.0000000000       -38.7428305362      -68.0497016564      104.2318575046
atom        15.3007000000       15.1141000000       15.1672000000 C         0.0000000000         0.0000000000      -239.1916270086        5.2762628483       90.9376440616
atom        14.1143000000       15.1940000000       15.7375000000 N         0.0000000000         0.0000000000       351.5996471446      -20.4932277477     -168.7293797480
energy      -655.4618974903
charge 0
end
begin
comment generated by PY
lattice        30.0000000000         0.0000000000         0.0000000000
lattice         0.0000000000        30.0000000000         0.0000000000
lattice         0.0000000000         0.0000000000        30.0000000000
atom        16.0910000000       14.3714000000       15.3261000000 H         0.0000000000         0.0000000000       -82.0828547281       70.8875867685       -0.7625478311
atom        15.4617000000       15.7880000000       14.2146000000 H         0.0000000000         0.0000000000       -15.5759809054      -70.8264966207      108.5803216367
atom        15.3044000000       15.0933000000       15.2013000000 C         0.0000000000         0.0000000000      -261.6307886003       37.3058063688       39.5340954802
atom        14.1159000000       15.2063000000       15.7203000000 N         0.0000000000         0.0000000000       359.2900011732      -37.3669965165     -147.3522692858
energy      -656.1182104593
charge 0
end
begin
comment generated by PY
lattice        30.0000000000         0.0000000000         0.0000000000
lattice         0.0000000000        30.0000000000         0.0000000000
lattice         0.0000000000         0.0000000000        30.0000000000
atom        16.0516000000       14.3765000000       15.3682000000 H         0.0000000000         0.0000000000       -74.7795469114       67.7177401180       -8.7916415700
atom        15.4626000000       15.8085000000       14.2731000000 H         0.0000000000         0.0000000000       -15.6254460746      -75.5863370928      101.4606483141
atom        15.2919000000       15.0944000000       15.1952000000 C         0.0000000000         0.0000000000      -254.9469657620       43.7226845462       54.8735752070
atom        14.1294000000       15.2036000000       15.7184000000 N         0.0000000000         0.0000000000       345.3515818086      -35.8541575714     -147.5428819511
energy      -672.1282162837
charge 0
end
begin
comment generated by PY
lattice        30.0000000000         0.0000000000         0.0000000000
lattice         0.0000000000        30.0000000000         0.0000000000
lattice         0.0000000000         0.0000000000        30.0000000000
atom        16.0303000000       14.3470000000       15.4017000000 H         0.0000000000         0.0000000000       -75.0545061101       75.9977825752      -15.4270945496
atom        15.5712000000       15.7786000000       14.2440000000 H         0.0000000000         0.0000000000       -32.4799819270      -70.0414648727      105.7951498671
atom        15.3012000000       15.1081000000       15.1772000000 C         0.0000000000         0.0000000000      -246.4051000701       19.3331693323       72.4052003703
atom        14.1152000000       15.1961000000       15.7335000000 N         0.0000000000         0.0000000000       353.9393881072      -25.2894870349     -162.7733326272
energy      -657.6076232100
charge 0
end
begin
comment generated by PY
lattice        30.0000000000         0.0000000000         0.0000000000
lattice         0.0000000000        30.0000000000         0.0000000000
lattice         0.0000000000         0.0000000000        30.0000000000
atom        15.9046000000       14.3009000000       15.4742000000 H         0.0000000000         0.0000000000       -55.4281936263       83.2363677547      -28.9177043733
atom        15.6919000000       15.7370000000       14.2389000000 H         0.0000000000         0.0000000000       -49.6642552990      -61.9601340920      106.2902070301
atom        15.3010000000       15.1301000000       15.1584000000 C         0.0000000000         0.0000000000      -242.8824363178      -14.2173381480       98.2465370058
atom        14.1157000000       15.1835000000       15.7449000000 N         0.0000000000         0.0000000000       347.9746852431       -7.0588955148     -175.6192396626
energy      -654.7285034349
charge 0
end
begin
comment generated by PY
lattice        30.0000000000         0.0000000000         0.0000000000
lattice         0.0000000000        30.0000000000         0.0000000000
lattice         0.0000000000         0.0000000000        30.0000000000
atom        15.9036000000       14.3037000000       15.4946000000 H         0.0000000000         0.0000000000       -56.9953166057       85.2242710294      -33.9688670154
atom        15.6494000000       15.7632000000       14.2647000000 H         0.0000000000         0.0000000000       -43.8734795799      -66.6171883297      102.3639810447
atom        15.2854000000       15.1300000000       15.1614000000 C         0.0000000000         0.0000000000      -236.3795327822      -11.4625941188      104.0646703923
atom        14.1322000000       15.1815000000       15.7390000000 N         0.0000000000         0.0000000000       337.2485520284       -7.1445116414     -172.4598844216
energy      -668.1294040209
charge 0
end
begin
comment generated by PY
lattice        30.0000000000         0.0000000000         0.0000000000
lattice         0.0000000000        30.0000000000         0.0000000000
lattice         0.0000000000         0.0000000000        30.0000000000
atom        15.9831000000       14.3146000000       15.4580000000 H         0.0000000000         0.0000000000       -72.4131068344       85.9231785479      -28.6199718602
atom        15.6124000000       15.7584000000       14.3025000000 H         0.0000000000         0.0000000000       -38.4554481627      -63.7736736605       93.8636698523
atom        15.2913000000       15.1242000000       15.1596000000 C         0.0000000000         0.0000000000      -233.2599916946       -7.9843732545      106.8600688295
atom        14.1241000000       15.1860000000       15.7404000000 N         0.0000000000         0.0000000000       344.1291466917      -14.1651316330     -172.1034668216
energy      -666.0539338905
charge 0
end
begin
comment generated by PY
lattice        30.0000000000         0.0000000000         0.0000000000
lattice         0.0000000000        30.0000000000         0.0000000000
lattice         0.0000000000         0.0000000000        30.0000000000
atom        16.0350000000       14.3213000000       15.4231000000 H         0.0000000000         0.0000000000       -82.1004121146       85.6270390342      -23.0082459194
atom        15.5906000000       15.7465000000       14.3330000000 H         0.0000000000         0.0000000000       -34.3171792371      -56.9374770450       83.7111672776
atom        15.2960000000       15.1224000000       15.1578000000 C         0.0000000000         0.0000000000      -232.0733045828      -11.1368567073      111.2296921635
atom        14.1179000000       15.1879000000       15.7423000000 N         0.0000000000         0.0000000000       348.4901189950      -17.5527552819     -171.9332135217
energy      -663.9746025692
charge 0
end
begin
comment generated by PY
lattice        30.0000000000         0.0000000000         0.0000000000
lattice         0.0000000000        30.0000000000         0.0000000000
lattice         0.0000000000         0.0000000000        30.0000000000
atom        16.0422000000       14.3237000000       15.4345000000 H         0.0000000000         0.0000000000       -82.6934787084       86.0390118203      -26.2358108750
atom        15.5367000000       15.7678000000       14.3545000000 H         0.0000000000         0.0000000000       -23.9653591909      -60.4266552696       78.5654114950
atom        15.2947000000       15.1165000000       15.1606000000 C         0.0000000000         0.0000000000      -238.7499191545       -3.3534131827      115.3014123305
atom        14.1223000000       15.1913000000       15.7375000000 N         0.0000000000         0.0000000000       345.4092339932      -22.2589664285     -167.6308360111
energy      -668.3115615126
charge 0
end
begin
comment generated by PY
lattice        30.0000000000         0.0000000000         0.0000000000
lattice         0.0000000000        30.0000000000         0.0000000000
lattice         0.0000000000         0.0000000000        30.0000000000
atom        16.0800000000       14.3093000000       15.4106000000 H         0.0000000000         0.0000000000       -88.6017109533       89.1170979714      -22.3603584715
atom        15.4560000000       15.7712000000       14.3763000000 H         0.0000000000         0.0000000000        -8.9910899091      -59.3321170462       72.1529986934
atom        15.2978000000       15.1073000000       15.1724000000 C         0.0000000000         0.0000000000      -248.3779644246        1.2665893037      106.9867158718
atom        14.1228000000       15.2000000000       15.7276000000 N         0.0000000000         0.0000000000       345.9705652870      -31.0514932895     -156.7791560937
energy      -669.2701735242
charge 0
end
begin
comment generated by PY
lattice        30.0000000000         0.0000000000         0.0000000000
lattice         0.0000000000        30.0000000000         0.0000000000
lattice         0.0000000000         0.0000000000        30.0000000000
atom        16.1364000000       14.3525000000       15.3386000000 H         0.0000000000         0.0000000000       -96.4526981681       78.0980498116       -6.6743318307
atom        15.4597000000       15.7552000000       14.3701000000 H         0.0000000000         0.0000000000       -12.6403075038      -57.4671889285       75.1654886380
atom        15.3071000000       15.0958000000       15.1798000000 C         0.0000000000         0.0000000000      -245.7648116159       18.7845008360       84.5245264513
atom        14.1105000000       15.2080000000       15.7268000000 N         0.0000000000         0.0000000000       354.8586403485      -39.4152386586     -153.0156832586
energy      -662.9711096956
charge 0
end
begin
comment generated by PY
lattice        30.0000000000         0.0000000000         0.0000000000
lattice         0.0000000000        30.0000000000         0.0000000000
lattice         0.0000000000         0.0000000000        30.0000000000
atom        16.0475000000       14.3566000000       15.4233000000 H         0.0000000000         0.0000000000       -82.0482951688       75.5493365686      -19.9784651979
atom        15.5682000000       15.7487000000       14.3530000000 H         0.0000000000         0.0000000000       -31.0607082423      -58.9041180809       80.5433939890
atom        15.2941000000       15.1073000000       15.1672000000 C         0.0000000000         0.0000000000      -233.9237084944       11.0143101650      104.3026267220
atom        14.1202000000       15.1983000000       15.7328000000 N         0.0000000000         0.0000000000       347.0332119055      -27.6595286528     -164.8672785737
energy      -671.6627848935
charge 0
end
begin
comment generated by PY
lattice        30.0000000000         0.0000000000         0.0000000000
lattice         0.0000000000        30.0000000000         0.0000000000
lattice         0.0000000000         0.0000000000        30.0000000000
atom        15.9223000000       14.3630000000       15.4926000000 H         0.0000000000         0.0000000000       -55.2101488048       67.2852812072      -29.3836428797
atom        15.6454000000       15.7344000000       14.3484000000 H         0.0000000000         0.0000000000       -42.3093594276      -56.5186316781       80.9514871931
atom        15.2869000000       15.1218000000       15.1542000000 C         0.0000000000         0.0000000000      -238.8484412853        2.3514284520      122.9048289059
atom        14.1299000000       15.1863000000       15.7393000000 N         0.0000000000         0.0000000000       336.3679495176      -13.1177549206     -174.4728732193
energy      -679.4080839210
charge 0
end
begin
comment generated by PY
lattice        30.0000000000         0.0000000000         0.0000000000
lattice         0.0000000000        30.0000000000         0.0000000000
lattice         0.0000000000         0.0000000000        30.0000000000
atom        15.9009000000       14.3712000000       15.5005000000 H         0.0000000000         0.0000000000       -46.1791149533       61.8698956996      -30.7347382800
atom        15.6544000000       15.7588000000       14.3376000000 H         0.0000000000         0.0000000000       -42.8958163245      -62.7359429027       84.5029476958
atom        15.2974000000       15.1234000000       15.1443000000 C         0.0000000000         0.0000000000      -250.8402469401       11.6565361228      126.3305506190
atom        14.1217000000       15.1827000000       15.7480000000 N         0.0000000000         0.0000000000       339.9154782178      -10.7907658592     -180.0990600348
energy      -669.9815136197
charge 0
end
begin
comment generated by PY
lattice        30.0000000000         0.0000000000         0.0000000000
lattice         0.0000000000        30.0000000000         0.0000000000
lattice         0.0000000000         0.0000000000        30.0000000000
atom        15.9557000000       14.3883000000       15.4627000000 H         0.0000000000         0.0000000000       -52.5127584923       58.0852371191      -25.9424693875
atom        15.6085000000       15.8160000000       14.3341000000 H         0.0000000000         0.0000000000       -36.8487509850      -75.6221940745       88.9472204927
atom        15.3020000000       15.1122000000       15.1472000000 C         0.0000000000         0.0000000000      -254.9375241559       36.9835312075      114.3116626689
atom        14.1172000000       15.1870000000       15.7484000000 N         0.0000000000         0.0000000000       344.2988336332      -19.4469742522     -177.3165137741
energy      -664.1769318514
charge 0
end
begin
comment generated by PY
lattice        30.0000000000         0.0000000000         0.0000000000
lattice         0.0000000000        30.0000000000         0.0000000000
lattice         0.0000000000         0.0000000000        30.0000000000
atom        16.0522000000       14.4398000000       15.3741000000 H         0.0000000000         0.0000000000       -69.0152356823       49.3297743459      -11.2324381710
atom        15.5167000000       15.8515000000       14.3755000000 H         0.0000000000         0.0000000000       -26.3548026941      -79.3254613301       82.6449154757
atom        15.2875000000       15.0959000000       15.1668000000 C         0.0000000000         0.0000000000      -246.3049656202       64.1675553225       92.9174398729
atom        14.1293000000       15.1947000000       15.7350000000 N         0.0000000000         0.0000000000       341.6741270572      -34.1718283383     -164.3297171776
energy      -677.5246168650
charge 0
end
begin
comment generated by PY
lattice        30.0000000000         0.0000000000         0.0000000000
lattice         0.0000000000        30.0000000000         0.0000000000
lattice         0.0000000000         0.0000000000        30.0000000000
atom        16.0922000000       14.4941000000       15.3389000000 H         0.0000000000         0.0000000000       -68.2811592546       35.0845287193       -4.1817739114
atom        15.4782000000       15.8715000000       14.4121000000 H         0.0000000000         0.0000000000       -21.6170649626      -81.4299778535       75.4346111818
atom        15.2882000000       15.0849000000       15.1687000000 C         0.0000000000         0.0000000000      -252.8075831008       89.1779257855       90.2361091677
atom        14.1286000000       15.1989000000       15.7333000000 N         0.0000000000         0.0000000000       342.7057303785      -42.8324766513     -161.4889464381
energy      -678.5708846758
charge 0
end
begin
comment generated by PY
lattice        30.0000000000         0.0000000000         0.0000000000
lattice         0.0000000000        30.0000000000         0.0000000000
lattice         0.0000000000         0.0000000000        30.0000000000
atom        16.0431000000       14.4402000000       15.4297000000 H         0.0000000000         0.0000000000       -69.2815430926       52.6975309732      -22.2663760181
atom        15.5460000000       15.8519000000       14.3895000000 H         0.0000000000         0.0000000000       -29.1215335029      -79.1343371909       77.1913905661
atom        15.2947000000       15.1001000000       15.1490000000 C         0.0000000000         0.0000000000      -244.8523227708       56.6991905406      119.5054635543
atom        14.1216000000       15.1911000000       15.7453000000 N         0.0000000000         0.0000000000       343.2555993663      -30.2623343229     -174.4306011629
energy      -669.8471218660
charge 0
end
begin
comment generated by PY
lattice        30.0000000000         0.0000000000         0.0000000000
lattice         0.0000000000        30.0000000000         0.0000000000
lattice         0.0000000000         0.0000000000        30.0000000000
atom        15.9835000000       14.3989000000       15.5147000000 H         0.0000000000         0.0000000000       -66.0561525645       66.8414783564      -39.4782200018
atom        15.5901000000       15.8115000000       14.3976000000 H         0.0000000000         0.0000000000       -31.5878800530      -67.8839687781       68.7674903156
atom        15.2934000000       15.1129000000       15.1364000000 C         0.0000000000         0.0000000000      -240.3426707164       21.3814115314      152.3281328735
atom        14.1239000000       15.1859000000       15.7495000000 N         0.0000000000         0.0000000000       337.9863033339      -20.3389211097     -181.6170031874
energy      -670.3146434350
charge 0
end
begin
comment generated by PY
lattice        30.0000000000         0.0000000000         0.0000000000
lattice         0.0000000000        30.0000000000         0.0000000000
lattice         0.0000000000         0.0000000000        30.0000000000
atom        15.9630000000       14.3848000000       15.5289000000 H         0.0000000000         0.0000000000       -66.5440137258       70.3575441580      -40.6941774545
atom        15.6387000000       15.7660000000       14.3997000000 H         0.0000000000         0.0000000000       -38.6151046268      -55.8002291483       63.9301807653
atom        15.2853000000       15.1204000000       15.1369000000 C         0.0000000000         0.0000000000      -230.0410019008        0.3760732972      160.2278077731
atom        14.1288000000       15.1837000000       15.7479000000 N         0.0000000000         0.0000000000       335.2001202535      -14.9333883069     -183.4645110840
energy      -675.4243593963
charge 0
end
begin
comment generated by PY
lattice        30.0000000000         0.0000000000         0.0000000000
lattice         0.0000000000        30.0000000000         0.0000000000
lattice         0.0000000000         0.0000000000        30.0000000000
atom        15.9967000000       14.3900000000       15.5148000000 H         0.0000000000         0.0000000000       -76.3888754460       69.9140173256      -36.7337846620
atom        15.6856000000       15.7338000000       14.4125000000 H         0.0000000000         0.0000000000       -46.8086817546      -46.0574963711       58.0391409452
atom        15.2797000000       15.1222000000       15.1371000000 C         0.0000000000         0.0000000000      -213.8662127413       -9.3256642415      164.1958209354
atom        14.1278000000       15.1841000000       15.7478000000 N         0.0000000000         0.0000000000       337.0629468812      -14.5308797735     -185.5012002792
energy      -675.2821519782
charge 0
end
begin
comment generated by PY
lattice        30.0000000000         0.0000000000         0.0000000000
lattice         0.0000000000        30.0000000000         0.0000000000
lattice         0.0000000000         0.0000000000        30.0000000000
atom        16.0575000000       14.3830000000       15.5034000000 H         0.0000000000         0.0000000000       -87.6892410969       73.6875298390      -36.5463026250
atom        15.6261000000       15.7559000000       14.4198000000 H         0.0000000000         0.0000000000       -36.8418300399      -50.2174579646       56.4348452805
atom        15.2832000000       15.1117000000       15.1428000000 C         0.0000000000         0.0000000000      -216.0180713457        0.4410516659      160.0265422712
atom        14.1247000000       15.1921000000       15.7432000000 N         0.0000000000         0.0000000000       340.5484194219      -23.9111004796     -179.9152849267
energy      -671.9011251924