begin
comment generated by PY
lattice        30.0000000000         0.0000000000         0.0000000000
lattice         0.0000000000        30.0000000000         0.0000000000
lattice         0.0000000000         0.0000000000        30.0000000000
atom        16.6081000000       15.5573000000       15.0893000000 H         0.0000000000         0.0000000000       -68.3298302554      -21.4931337858      -95.2448394697
atom        16.6097000000       15.5065000000       13.2406000000 H         0.0000000000         0.0000000000       -75.2938280207      -20.1086941745       96.5673967360
atom        16.0569000000       15.3688000000       14.1684000000 C         0.0000000000         0.0000000000      -208.8304850629      -64.5618431224       33.4050069194
atom        13.0986000000       14.1047000000       15.7531000000 O         0.0000000000         0.0000000000       281.7093297348      198.3524359812      -66.7110369031
atom        14.6968000000       15.4500000000       16.6163000000 O         0.0000000000         0.0000000000      -129.8807681629     -144.9823441946     -270.0113609803
atom        14.8020000000       14.9859000000       14.1620000000 N         0.0000000000         0.0000000000       266.3078530295       85.1047587352       76.0734542396
atom        14.1516000000       14.8499000000       15.6017000000 N         0.0000000000         0.0000000000       -65.6820943230      -32.3107563787      225.9223025185
energy     -1337.4577939770
charge 0
end
begin
comment generated by PY
lattice        30.0000000000         0.0000000000         0.0000000000
lattice         0.0000000000        30.0000000000         0.0000000000
lattice         0.0000000000         0.0000000000        30.0000000000
atom        15.6885000000       13.5541000000       14.1093000000 H         0.0000000000         0.0000000000        -7.1187137329      129.6320943073      -32.6541794509
atom        16.0690000000       14.8410000000       12.7205000000 H         0.0000000000         0.0000000000       -35.6352790625       -4.0862418990      137.2501478849
atom        15.6948000000       14.6515000000       13.7925000000 C         0.0000000000         0.0000000000      -135.6052444928      110.6143779237      122.0951357574
atom        13.7400000000       13.8479000000       15.5507000000 O         0.0000000000         0.0000000000       101.6648725771      316.8924719233       17.2860046657
atom        14.1320000000       15.7047000000       16.8227000000 O         0.0000000000         0.0000000000        10.2160802699     -147.0562578162     -314.7100735414
atom        15.1037000000       15.5879000000       14.5175000000 N         0.0000000000         0.0000000000        72.9292424749     -246.4694045583     -125.1035830291
atom        14.1773000000       15.0563000000       15.6712000000 N         0.0000000000         0.0000000000        -6.4508380337     -159.5271629414      195.8373477133
energy     -1307.4190853195
charge 0
end
begin
comment generated by PY
lattice        30.0000000000         0.0000000000         0.0000000000
lattice         0.0000000000        30.0000000000         0.0000000000
lattice         0.0000000000         0.0000000000        30.0000000000
atom        14.4733000000       16.0410000000       13.1801000000 H         0.0000000000         0.0000000000       101.3319185239      -77.5764493749       43.9435522960
atom        16.2406000000       15.5803000000       12.7914000000 H         0.0000000000         0.0000000000       -83.9719140877      -30.4556095550       95.1294993678
atom        15.4049000000       15.4465000000       13.5065000000 C         0.0000000000         0.0000000000       -19.7298282575      -36.3395805861      217.1949970960
atom        13.8184000000       13.6979000000       16.1423000000 O         0.0000000000         0.0000000000       183.0882037478      265.7067685527     -110.1304167897
atom        13.7796000000       15.8886000000       16.2161000000 O         0.0000000000         0.0000000000       180.1539120330     -249.3163613849     -117.9727458220
atom        15.5475000000       14.8863000000       14.7304000000 N         0.0000000000         0.0000000000       -82.6104968371      114.4858740967     -232.9397040862
atom        14.3699000000       14.8066000000       15.7821000000 N         0.0000000000         0.0000000000      -278.2608181829       13.4953482514      104.7743179381
energy     -1298.0177993041
charge 0
end
begin
comment generated by PY
lattice        30.0000000000         0.0000000000         0.0000000000
lattice         0.0000000000        30.0000000000         0.0000000000
lattice         0.0000000000         0.0000000000        30.0000000000
atom        16.6198000000       15.8061000000       14.7768000000 H         0.0000000000         0.0000000000       -53.5005072078      -63.2364018953      -69.2567328304
atom        16.5348000000       15.1993000000       13.0618000000 H         0.0000000000         0.0000000000       -63.3402418623        6.4052323434      100.8330408747
atom        16.0775000000       15.2871000000       14.0324000000 C         0.0000000000         0.0000000000      -228.3614954899      -19.9219973857       48.8212373185
atom        14.4225000000       13.8527000000       16.4173000000 O         0.0000000000         0.0000000000        -8.9967595575      278.8608576385     -194.1538713482
atom        13.2361000000       15.7102000000       15.9426000000 O         0.0000000000         0.0000000000       279.4668267320     -177.4609726856      -72.1856106668
atom        14.8193000000       14.9610000000       14.2197000000 N         0.0000000000         0.0000000000       289.4393900436       61.7759082499       52.6487637612
atom        14.2774000000       14.9396000000       15.7067000000 N         0.0000000000         0.0000000000      -214.7063895977      -86.4226493257      133.2934728909
energy     -1326.9383566634
charge 0
end
begin
comment generated by PY
lattice        30.0000000000         0.0000000000         0.0000000000
lattice         0.0000000000        30.0000000000         0.0000000000
lattice         0.0000000000         0.0000000000        30.0000000000
atom        16.3193000000       13.9386000000       14.1755000000 H         0.0000000000         0.0000000000       -42.1590715825       49.9645267709      -20.8960718336
atom        16.1705000000       15.0120000000       12.8242000000 H         0.0000000000         0.0000000000       -41.5811964877      -10.3476018645      104.7991105400
atom        15.8654000000       14.7440000000       13.8035000000 C         0.0000000000         0.0000000000      -143.8573450536      140.3499286502      150.1050242444
atom        14.6726000000       14.1342000000       16.5657000000 O         0.0000000000         0.0000000000       -73.2035012198      261.2310334427     -185.2420885332
atom        12.9907000000       15.3409000000       15.7011000000 O         0.0000000000         0.0000000000       340.4630820596      -28.1184852105       20.3028867845
atom        15.0402000000       15.5087000000       14.4829000000 N         0.0000000000         0.0000000000       141.1535857688     -171.1924714785     -120.8765013416
atom        14.2806000000       15.1051000000       15.8061000000 N         0.0000000000         0.0000000000      -180.8146534848     -241.8873533708       51.8080170790
energy     -1326.8470557897
charge 0
end
begin
comment generated by PY
lattice        30.0000000000         0.0000000000         0.0000000000
lattice         0.0000000000        30.0000000000         0.0000000000
lattice         0.0000000000         0.0000000000        30.0000000000
atom        16.6859000000       15.6782000000       14.7698000000 H         0.0000000000         0.0000000000       -58.4738684195      -41.8231062525      -67.0618169788
atom        16.5715000000       15.0262000000       13.1251000000 H         0.0000000000         0.0000000000       -61.5166052852       30.0616860332       74.3007563892
atom        16.0983000000       15.2812000000       14.0113000000 C         0.0000000000         0.0000000000      -234.4126306002      -62.9990272661       78.1055637540
atom        14.4303000000       13.8741000000       16.4158000000 O         0.0000000000         0.0000000000       -12.0544199614      277.6444800004     -186.8360096157
atom        13.2311000000       15.6872000000       15.9375000000 O         0.0000000000         0.0000000000       281.0767037689     -169.9935656307      -61.6524553490
atom        14.8005000000       14.9795000000       14.2173000000 N         0.0000000000         0.0000000000       304.9813164534       56.6738996166       41.9170772846
atom        14.2679000000       14.9497000000       15.7307000000 N         0.0000000000         0.0000000000      -219.6011959560      -89.5635665009      121.2273845158
energy     -1333.2365895985
charge 0
end
begin
comment generated by PY
lattice        30.0000000000         0.0000000000         0.0000000000
lattice         0.0000000000        30.0000000000         0.0000000000
lattice         0.0000000000         0.0000000000        30.0000000000
atom        14.4925000000       15.9524000000       13.1899000000 H         0.0000000000         0.0000000000        91.3379861544      -52.5712327716       50.1935500510
atom        16.2571000000       15.4739000000       12.8994000000 H         0.0000000000         0.0000000000       -93.6112637977       -3.8072517040       84.0002275938
atom        15.3863000000       15.4761000000       13.5684000000 C         0.0000000000         0.0000000000        17.3858925389     -109.9213820793      191.0680610272
atom        13.8521000000       13.6928000000       16.1815000000 O         0.0000000000         0.0000000000       153.4464926286      278.9453516402     -131.2065599287
atom        13.7998000000       15.9172000000       16.1735000000 O         0.0000000000         0.0000000000       152.4618446701     -270.7979079409     -117.9327794299
atom        15.5461000000       14.8582000000       14.7055000000 N         0.0000000000         0.0000000000      -102.2740064828      140.6558933714     -216.5018136088
atom        14.3231000000       14.7964000000       15.7495000000 N         0.0000000000         0.0000000000      -218.7472457116       17.4976325449      140.3795142953
energy     -1336.9718556258
charge 0
end
begin
comment generated by PY
lattice        30.0000000000         0.0000000000         0.0000000000
lattice         0.0000000000        30.0000000000         0.0000000000
lattice         0.0000000000         0.0000000000        30.0000000000
atom        15.1237000000       13.5788000000       13.9643000000 H         0.0000000000         0.0000000000        15.0891618561      134.7743505197      -34.5080829174
atom        15.9960000000       14.8785000000       12.7484000000 H         0.0000000000         0.0000000000       -61.6996653530      -14.5440967754      121.9269993658
atom        15.4269000000       14.6734000000       13.7090000000 C         0.0000000000         0.0000000000        25.5769048788       89.8573351979      193.8865674458
atom        13.8511000000       13.8342000000       15.5428000000 O         0.0000000000         0.0000000000       102.4702694323      311.3121762799       45.9316156245
atom        13.9336000000       15.7818000000       16.7217000000 O         0.0000000000         0.0000000000       100.1270919849     -188.1596471955     -283.4007691429
atom        15.3826000000       15.5171000000       14.6763000000 N         0.0000000000         0.0000000000       -72.4503916798     -207.3491711000     -196.2830626283
atom        14.2736000000       15.0313000000       15.7169000000 N         0.0000000000         0.0000000000      -109.1133111193     -125.8916469266      152.4460091921
energy     -1333.9663236884
charge 0
end
begin
comment generated by PY
lattice        30.0000000000         0.0000000000         0.0000000000
lattice         0.0000000000        30.0000000000         0.0000000000
lattice         0.0000000000         0.0000000000        30.0000000000
atom        16.8982000000       14.7610000000       14.8002000000 H         0.0000000000         0.0000000000       -93.7248046406       39.8849698668      -88.3742965947
atom        16.5969000000       15.1772000000       12.9559000000 H         0.0000000000         0.0000000000       -70.4361494727       -1.7052601650      118.2489318570
atom        16.1412000000       15.0939000000       13.9954000000 C         0.0000000000         0.0000000000      -201.3457937585       -8.4129574820       72.9471057094
atom        13.2556000000       13.9768000000       15.7370000000 O         0.0000000000         0.0000000000       219.0134846934      257.4884949690      -61.2006505209
atom        14.4742000000       15.5424000000       16.7198000000 O         0.0000000000         0.0000000000       -83.0296617089     -128.0710839688     -296.6569100857
atom        14.8238000000       15.2406000000       14.2074000000 N         0.0000000000         0.0000000000       272.6825068160      -46.7622528886       -1.5587949068
atom        14.1125000000       14.9520000000       15.6458000000 N         0.0000000000         0.0000000000       -43.1594588682     -112.4215072709      256.5943145418
energy     -1300.6256197798
charge 0
end
begin
comment generated by PY
lattice        30.0000000000         0.0000000000         0.0000000000
lattice         0.0000000000        30.0000000000         0.0000000000
lattice         0.0000000000         0.0000000000        30.0000000000
atom        15.2541000000       16.5980000000       13.7300000000 H         0.0000000000         0.0000000000        23.7595425661     -124.1164602770       -8.0771110426
atom        16.0625000000       15.2246000000       12.7673000000 H         0.0000000000         0.0000000000       -41.9492078232       25.9799358718      105.8765904754
atom        15.5627000000       15.5376000000       13.6618000000 C         0.0000000000         0.0000000000       -46.1175224132     -116.4620725805      180.8404564490
atom        13.0334000000       14.5271000000       15.4628000000 O         0.0000000000         0.0000000000       313.3960979911      123.0186845201       21.3439235088
atom        14.6582000000       15.0168000000       16.9243000000 O         0.0000000000         0.0000000000       -81.5676029030        7.1023056396     -325.1742153941
atom        15.3723000000       14.6807000000       14.6265000000 N         0.0000000000         0.0000000000       -52.3382966938      225.4602678614     -187.3522966142
atom        14.2596000000       14.9683000000       15.6824000000 N         0.0000000000         0.0000000000      -115.1826107240     -140.9823610354      212.5431864966
energy     -1323.2249122899
charge 0
end
begin
comment generated by PY
lattice        30.0000000000         0.0000000000         0.0000000000
lattice         0.0000000000        30.0000000000         0.0000000000
lattice         0.0000000000         0.0000000000        30.0000000000
atom        14.4048000000       14.7573000000       13.1610000000 H         0.0000000000         0.0000000000        79.1695883495       21.1889392895       43.6004183842
atom        16.0531000000       15.1144000000       12.7740000000 H         0.0000000000         0.0000000000       -53.7206422648       -0.0692552036       88.2313046516
atom        15.3336000000       15.0317000000       13.5181000000 C         0.0000000000         0.0000000000       -10.0924045230       42.9394518788      240.2032845149
atom        13.0930000000       14.8996000000       15.3106000000 O         0.0000000000         0.0000000000       318.2423475318       30.4008180249      108.6276371125
atom        14.6355000000       14.6055000000       16.9817000000 O         0.0000000000         0.0000000000       -70.7241365000      110.1870172800     -327.5157592660
atom        15.5352000000       15.2918000000       14.8128000000 N         0.0000000000         0.0000000000      -104.9871453321      -82.3375695717     -260.5081297285
atom        14.3125000000       14.9751000000       15.7681000000 N         0.0000000000         0.0000000000      -157.8873972614     -122.3093786373      107.3612212707
energy     -1333.1541230600
charge 0
end
begin
comment generated by PY
lattice        30.0000000000         0.0000000000         0.0000000000
lattice         0.0000000000        30.0000000000         0.0000000000
lattice         0.0000000000         0.0000000000        30.0000000000
atom        14.7610000000       16.4362000000       14.1087000000 H         0.0000000000         0.0000000000        37.6048266714      -67.8401247577       -7.7140216019
atom        16.0109000000       15.7616000000       13.1379000000 H         0.0000000000         0.0000000000       -47.4346903151      -20.9220222465       71.2481615408
atom        15.3653000000       15.6607000000       13.9142000000 C         0.0000000000         0.0000000000         8.6294136764     -223.4178804677      151.1293676216
atom        13.0754000000       14.6944000000       15.3099000000 O         0.0000000000         0.0000000000       308.2086859911      -71.1927737129      105.0747230857
atom        14.7135000000       15.2451000000       16.7885000000 O         0.0000000000         0.0000000000       -89.1194451635     -200.5654077272     -245.1963870138
atom        15.4239000000       14.5128000000       14.6343000000 N         0.0000000000         0.0000000000       -90.4966272444      274.0390515935     -114.2324977183
atom        14.3052000000       14.5518000000       15.7346000000 N         0.0000000000         0.0000000000      -127.3928436159      309.8994573185       39.6905540859
energy     -1315.3393600713
charge 0
end
begin
comment generated by PY
lattice        30.0000000000         0.0000000000         0.0000000000
lattice         0.0000000000        30.0000000000         0.0000000000
lattice         0.0000000000         0.0000000000        30.0000000000
atom        16.4383000000       16.0406000000       14.9206000000 H         0.0000000000         0.0000000000       -38.3197330833      -66.8602799980      -64.6600695955
atom        16.6699000000       15.4027000000       13.2471000000 H         0.0000000000         0.0000000000       -79.9193176802       -6.2905508814       94.6964421635
atom        16.0667000000       15.4326000000       14.1518000000 C         0.0000000000         0.0000000000      -211.7488937757      -55.9452909663       24.1635710175
atom        13.0874000000       14.1149000000       15.7387000000 O         0.0000000000         0.0000000000       267.4924767033      199.8584306607      -84.1821742483
atom        14.6362000000       15.4026000000       16.6501000000 O         0.0000000000         0.0000000000      -105.1073838504     -107.8265747151     -290.6847771179
atom        14.8979000000       14.9010000000       14.1947000000 N         0.0000000000         0.0000000000       233.8791962589      108.2874444802       52.0946057972
atom        14.1370000000       14.8953000000       15.5726000000 N         0.0000000000         0.0000000000       -66.2767445725      -71.2236185802      268.5738019835
energy     -1341.4172854743
charge 0
end
begin
comment generated by PY
lattice        30.0000000000         0.0000000000         0.0000000000
lattice         0.0000000000        30.0000000000         0.0000000000
lattice         0.0000000000         0.0000000000        30.0000000000
atom        16.0532000000       16.4689000000       14.7947000000 H         0.0000000000         0.0000000000       -20.3534733345     -103.4769041481      -79.4293797482
atom        16.6348000000       15.5889000000       13.2062000000 H         0.0000000000         0.0000000000       -88.6130490466      -14.9811805677       99.1649860301
atom        15.9352000000       15.5940000000       14.0804000000 C         0.0000000000         0.0000000000      -154.3172470566     -129.1056437765       75.2930405466
atom        13.0111000000       14.2455000000       15.6382000000 O         0.0000000000         0.0000000000       306.6242469160      173.1166338043      -28.2099242853
atom        14.7203000000       15.3590000000       16.6895000000 O         0.0000000000         0.0000000000      -142.9124151143     -113.7761790234     -278.9382611113
atom        15.0390000000       14.6507000000       14.3064000000 N         0.0000000000         0.0000000000       167.0617283876      247.4394879397        4.7044920174
atom        14.1299000000       14.8639000000       15.6039000000 N         0.0000000000         0.0000000000       -67.4900138120      -59.2161942282      207.4147465508
energy     -1317.8420747205
charge 0
end
begin
comment generated by PY
lattice        30.0000000000         0.0000000000         0.0000000000
lattice         0.0000000000        30.0000000000         0.0000000000
lattice         0.0000000000         0.0000000000        30.0000000000
atom        14.7150000000       16.5154000000       13.8232000000 H         0.0000000000         0.0000000000        76.2981256030     -121.1864775592      -14.4092148177
atom        16.1197000000       15.6381000000       12.8050000000 H         0.0000000000         0.0000000000       -75.0209974155      -26.2636468430      112.1316874745
atom        15.4202000000       15.5535000000       13.6949000000 C         0.0000000000         0.0000000000        -9.9316745413      -98.6868835854      180.8103774975
atom        13.0898000000       14.6646000000       15.3570000000 O         0.0000000000         0.0000000000       328.5136338444       19.4050983893       77.1363414157
atom        14.6229000000       15.0748000000       16.9664000000 O         0.0000000000         0.0000000000       -63.4177953061      -83.6885095182     -325.6793527000
atom        15.4716000000       14.6128000000       14.6313000000 N         0.0000000000         0.0000000000       -88.4447629540      238.0786886660     -177.3786945643
atom        14.2930000000       14.7756000000       15.7127000000 N         0.0000000000         0.0000000000      -167.9971292304       72.3423435110      147.3894526339
energy     -1308.2139296809
charge 0
end
begin
comment generated by PY
lattice        30.0000000000         0.0000000000         0.0000000000
lattice         0.0000000000        30.0000000000         0.0000000000
lattice         0.0000000000         0.0000000000        30.0000000000
atom        14.3866000000       14.3315000000       13.2457000000 H         0.0000000000         0.0000000000        93.3784777393       98.3103796569       47.7130934404
atom        15.9383000000       15.3470000000       12.7122000000 H         0.0000000000         0.0000000000       -76.7298766573      -20.7701010777      109.4828648815
atom        15.2385000000       15.0818000000       13.5583000000 C         0.0000000000         0.0000000000        63.4176473088      -17.5579521233      194.8295972828
atom        13.1798000000       14.9361000000       15.2760000000 O         0.0000000000         0.0000000000       313.9739608189      -38.4789885863       94.4113263545
atom        14.5519000000       14.6387000000       17.0274000000 O         0.0000000000         0.0000000000       -18.0243056958       38.7712120938     -339.9629375845
atom        15.5648000000       15.3436000000       14.8101000000 N         0.0000000000         0.0000000000      -167.8465243597     -103.0515003205     -264.1202289275
atom        14.3703000000       14.8144000000       15.7219000000 N         0.0000000000         0.0000000000      -208.1695560936       42.7769734175      157.6462845528
energy     -1312.8169718548
charge 0
end
begin
comment generated by PY
lattice        30.0000000000         0.0000000000         0.0000000000
lattice         0.0000000000        30.0000000000         0.0000000000
lattice         0.0000000000         0.0000000000        30.0000000000
atom        14.5582000000       16.4334000000       13.8826000000 H         0.0000000000         0.0000000000        81.7598263652     -103.8122747691       -4.8430164320
atom        16.0558000000       15.7605000000       12.9747000000 H         0.0000000000         0.0000000000       -77.9478043422      -30.1087581835       97.2994586256
atom        15.3220000000       15.6150000000       13.7850000000 C         0.0000000000         0.0000000000        21.4656127099     -142.8105773896      160.9284654324
atom        13.1316000000       14.6792000000       15.2930000000 O         0.0000000000         0.0000000000       314.6063551870      -43.4467051866      100.8381392234
atom        14.6115000000       15.1621000000       16.9230000000 O         0.0000000000         0.0000000000       -38.6323167835     -157.9593159546     -294.5133386249
atom        15.4820000000       14.5926000000       14.6434000000 N         0.0000000000         0.0000000000      -112.7225799379      248.6475538274     -141.7668427968
atom        14.3479000000       14.6236000000       15.7297000000 N         0.0000000000         0.0000000000      -188.5293931985      229.4899615350       82.0576845722
energy     -1303.3343478181
charge 0
end
begin
comment generated by PY
lattice        30.0000000000         0.0000000000         0.0000000000
lattice         0.0000000000        30.0000000000         0.0000000000
lattice         0.0000000000         0.0000000000        30.0000000000
atom        16.3871000000       16.3093000000       14.7145000000 H         0.0000000000         0.0000000000       -49.0810268040      -75.3021274873      -64.1071897840
atom        16.6403000000       15.4525000000       13.1524000000 H         0.0000000000         0.0000000000       -84.0813786677       -2.5739327092       92.8746063736
atom        16.0131000000       15.5674000000       14.0379000000 C         0.0000000000         0.0000000000      -166.5760753143     -117.3367277971       86.0446066305
atom        13.0856000000       14.1300000000       15.6579000000 O         0.0000000000         0.0000000000       274.1081606910      208.1154554057      -45.9138714843
atom        14.6279000000       15.3613000000       16.7249000000 O         0.0000000000         0.0000000000      -110.9287552785      -98.7572257316     -292.9641703164
atom        14.9739000000       14.7960000000       14.2915000000 N         0.0000000000         0.0000000000       197.9246154688      182.7136709924      -11.5858793358
atom        14.1243000000       14.8920000000       15.6019000000 N         0.0000000000         0.0000000000       -61.3651400953      -96.8590126729      235.6525079163
energy     -1326.1198358316
charge 0
end
begin
comment generated by PY
lattice        30.0000000000         0.0000000000         0.0000000000
lattice         0.0000000000        30.0000000000         0.0000000000
lattice         0.0000000000         0.0000000000        30.0000000000
atom        16.4583000000       16.1404000000       14.8090000000 H         0.0000000000         0.0000000000       -36.0141599318      -54.9214243822      -52.0826720930
atom        16.5630000000       15.3859000000       13.1708000000 H         0.0000000000         0.0000000000       -62.6979006924        5.5356370313      101.6159477062
atom        16.0608000000       15.5106000000       14.1142000000 C         0.0000000000         0.0000000000      -226.0119889231     -103.6245960605       32.1024536360
atom        13.1003000000       14.0552000000       15.6906000000 O         0.0000000000         0.0000000000       252.8300006211      230.2049356773      -54.8788749499
atom        14.6474000000       15.3842000000       16.6687000000 O         0.0000000000         0.0000000000      -132.0026913729      -98.9003081582     -284.9881074148
atom        14.9161000000       14.8931000000       14.2568000000 N         0.0000000000         0.0000000000       218.4173803871      136.1762485799       18.7672844685
atom        14.1027000000       14.9198000000       15.5898000000 N         0.0000000000         0.0000000000       -14.5210400879     -114.4699926877      239.4644455865
energy     -1333.1282372474
charge 0
end
begin
comment generated by PY
lattice        30.0000000000         0.0000000000         0.0000000000
lattice         0.0000000000        30.0000000000         0.0000000000
lattice         0.0000000000         0.0000000000        30.0000000000
atom        14.5782000000       16.2392000000       13.8319000000 H         0.0000000000         0.0000000000        35.9594705513      -42.6798272107        3.0617398659
atom        15.9705000000       15.8081000000       12.9402000000 H         0.0000000000         0.0000000000       -53.4726490376      -34.3070536145       91.9173043784
atom        15.3291000000       15.6197000000       13.7584000000 C         0.0000000000         0.0000000000        50.1985040789     -191.5132924725      168.6102948980
atom        13.0970000000       14.6769000000       15.3178000000 O         0.0000000000         0.0000000000       314.5334104249      -24.7895090048       99.4090405583
atom        14.6153000000       15.0979000000       16.8955000000 O         0.0000000000         0.0000000000       -55.5266246375     -135.7883811452     -299.3272163982
atom        15.5387000000       14.6322000000       14.6478000000 N         0.0000000000         0.0000000000      -116.9203475117      243.2384741266     -167.2508702123
atom        14.3248000000       14.6665000000       15.7573000000 N         0.0000000000         0.0000000000      -174.7720869289      185.8395593211      103.5800269098
energy     -1343.0908914522
charge 0
end
begin
comment generated by PY
lattice        30.0000000000         0.0000000000         0.0000000000
lattice         0.0000000000        30.0000000000         0.0000000000
lattice         0.0000000000         0.0000000000        30.0000000000