begin
comment generated by PY
lattice        30.0000000000         0.0000000000         0.0000000000
lattice         0.0000000000        30.0000000000         0.0000000000
lattice         0.0000000000         0.0000000000        30.0000000000
atom        14.2199000000       16.4937000000       15.9929000000 H         0.0000000000         0.0000000000         9.2834170627      -77.9333641455      -99.1707182326
atom        13.2046000000       16.0302000000       14.6682000000 H         0.0000000000         0.0000000000       125.2966540661      -23.5671399588       34.3740514951
atom        17.4196000000       16.8481000000       13.8654000000 H         0.0000000000         0.0000000000       -91.9649847471      -60.9626788737       74.8709425945
atom        16.8753000000       16.9525000000       15.5182000000 H         0.0000000000         0.0000000000       -20.0531389743      -72.4718786453     -102.0721160985
atom        16.4026000000       13.1610000000       15.4236000000 H         0.0000000000         0.0000000000       -48.3118789281      118.3699274527      -23.6613945343
atom        14.9775000000       17.7735000000       14.0666000000 H         0.0000000000         0.0000000000        25.5007272187     -137.6863031492       18.1770470879
atom        14.2414000000       15.9517000000       15.0326000000 C         0.0000000000         0.0000000000        46.3014119906       31.0253929576      -12.0940019773
atom        16.7031000000       16.3882000000       14.5760000000 C         0.0000000000         0.0000000000       -31.7007631772      -41.1853205431       18.4013757469
atom        16.0738000000       14.1795000000       15.2218000000 C         0.0000000000         0.0000000000        64.0077347839       92.8048207799      -75.4811846866
atom        12.5893000000       13.6344000000       14.1091000000 O         0.0000000000         0.0000000000       327.9168174473      -47.0872644874       84.5285692937
atom        14.4190000000       12.3628000000       13.9042000000 O         0.0000000000         0.0000000000      -143.3960578603      274.2669450770      136.8684995864
atom        15.1845000000       16.6874000000       14.1128000000 N         0.0000000000         0.0000000000        33.4141968631      -53.0644163071      151.0197019662
atom        14.6168000000       14.3800000000       15.3849000000 N         0.0000000000         0.0000000000       129.7271834587      104.1349328868     -141.3720646431
atom        17.0533000000       14.9718000000       14.8140000000 N         0.0000000000         0.0000000000      -317.0734843208       32.8402647950       78.1540244228
atom        13.8164000000       13.3887000000       14.3718000000 N         0.0000000000         0.0000000000      -108.9472218227     -139.4838947785     -142.5428820211
energy     -2876.8320011642
charge 0
end
begin
comment generated by PY
lattice        30.0000000000         0.0000000000         0.0000000000
lattice         0.0000000000        30.0000000000         0.0000000000
lattice         0.0000000000         0.0000000000        30.0000000000
atom        14.4204000000       16.4969000000       15.9566000000 H         0.0000000000         0.0000000000       -13.9119159006      -87.3582578921      -97.5959673646
atom        13.2114000000       16.1352000000       14.8148000000 H         0.0000000000         0.0000000000       114.8402622476      -46.3800277437       13.2616424605
atom        17.4288000000       16.5027000000       13.6043000000 H         0.0000000000         0.0000000000      -102.2813272959      -40.6820972224       81.2899993080
atom        16.9235000000       17.0465000000       15.1339000000 H         0.0000000000         0.0000000000       -29.8667236601     -100.0640096325      -73.1350695773
atom        16.3219000000       13.2468000000       15.9078000000 H         0.0000000000         0.0000000000       -33.9539312760      103.4379073439      -53.5961834664
atom        14.9570000000       17.4525000000       13.5682000000 H         0.0000000000         0.0000000000        20.5934905739     -109.5988491241       56.9929087973
atom        14.2361000000       15.8914000000       15.0309000000 C         0.0000000000         0.0000000000        78.5117533179       53.8003186910       -0.3058268812
atom        16.6694000000       16.2475000000       14.3913000000 C         0.0000000000         0.0000000000       -22.0329525511      -15.7939002023       40.4317590148
atom        16.0373000000       14.1734000000       15.4523000000 C         0.0000000000         0.0000000000        71.0202694083       93.1926367461      -71.9146447827
atom        12.5767000000       13.5867000000       14.2497000000 O         0.0000000000         0.0000000000       325.3384853433      -53.8325586651       74.8381533724
atom        14.5812000000       12.8306000000       13.5594000000 O         0.0000000000         0.0000000000      -186.1881801283      130.4015806927      242.6010947564
atom        15.1693000000       16.4910000000       13.9741000000 N         0.0000000000         0.0000000000        47.5102482826      -66.7622558699      139.0907221307
atom        14.5297000000       14.3414000000       15.5119000000 N         0.0000000000         0.0000000000       128.3699454023      107.4944602472     -143.2828305059
atom        17.0367000000       14.9252000000       14.9904000000 N         0.0000000000         0.0000000000      -332.6227229770       18.5849846238       33.6417642632
atom        13.8173000000       13.3947000000       14.4419000000 N         0.0000000000         0.0000000000       -65.3275177264       13.5598110679     -242.3170445858
energy     -2859.3862695897
charge 0
end
begin
comment generated by PY
lattice        30.0000000000         0.0000000000         0.0000000000
lattice         0.0000000000        30.0000000000         0.0000000000
lattice         0.0000000000         0.0000000000        30.0000000000
atom        13.9606000000       16.6063000000       15.5287000000 H         0.0000000000         0.0000000000        35.6127877636      -97.4782457087      -71.8961148005
atom        13.3237000000       15.8704000000       14.1594000000 H         0.0000000000         0.0000000000       104.0607839120      -13.7430844179       49.4284643825
atom        17.5563000000       16.7129000000       13.8526000000 H         0.0000000000         0.0000000000       -91.4997713103      -63.4822912426       87.4870462958
atom        16.9005000000       17.0925000000       15.4092000000 H         0.0000000000         0.0000000000       -11.5568028095      -95.4822522844      -79.2838090153
atom        16.4602000000       13.3405000000       15.8710000000 H         0.0000000000         0.0000000000       -53.6185588551       82.8800358988      -50.8767521036
atom        15.2579000000       17.6565000000       13.6353000000 H         0.0000000000         0.0000000000        -2.4442704148     -134.0818464633       52.3345030939
atom        14.2280000000       15.9206000000       14.7134000000 C         0.0000000000         0.0000000000        60.9113646412       88.6613838148      -12.4287605961
atom        16.8050000000       16.3275000000       14.6229000000 C         0.0000000000         0.0000000000       -45.9079752142      -16.2724740485       21.4994447963
atom        16.0908000000       14.2115000000       15.4123000000 C         0.0000000000         0.0000000000        58.7135634518       87.1758864121       -9.9305347652
atom        12.5246000000       13.2671000000       14.6060000000 O         0.0000000000         0.0000000000       335.7942795666       36.5485225893      -24.6044650797
atom        14.2629000000       12.9103000000       13.2993000000 O         0.0000000000         0.0000000000       -97.1760657094      118.4807865590      295.1261979622
atom        15.3302000000       16.6011000000       13.9555000000 N         0.0000000000         0.0000000000        22.0830345697      -55.7677516577      123.4071411211
atom        14.6426000000       14.3034000000       15.4134000000 N         0.0000000000         0.0000000000       129.1003130088       97.1312991660     -125.5668713125
atom        17.0583000000       15.0030000000       15.1914000000 N         0.0000000000         0.0000000000      -286.6355350672       44.3977106010      -50.6296959642
atom        13.7761000000       13.3643000000       14.3939000000 N         0.0000000000         0.0000000000      -157.4365275330      -78.9671461574     -204.0669170754
energy     -2861.0579386603
charge 0
end
begin
comment generated by PY
lattice        30.0000000000         0.0000000000         0.0000000000
lattice         0.0000000000        30.0000000000         0.0000000000
lattice         0.0000000000         0.0000000000        30.0000000000
atom        14.2686000000       16.7627000000       15.7943000000 H         0.0000000000         0.0000000000        18.9697467121      -96.6663822639      -71.6047897161
atom        13.1989000000       16.1770000000       14.6280000000 H         0.0000000000         0.0000000000       130.1524689884      -29.7909746338       34.6698006717
atom        17.1863000000       15.6044000000       13.3313000000 H         0.0000000000         0.0000000000       -57.1127223744       40.4147740324      105.3032882322
atom        17.3170000000       16.9542000000       14.4611000000 H         0.0000000000         0.0000000000       -69.8980673695     -124.3670045478       -3.6450866321
atom        16.2116000000       13.5832000000       16.4870000000 H         0.0000000000         0.0000000000       -51.6598066630       76.0576979088      -88.7893192670
atom        15.2278000000       17.2379000000       13.2592000000 H         0.0000000000         0.0000000000       -14.9655408559     -109.8869159948       86.8567823776
atom        14.2674000000       16.0426000000       14.9885000000 C         0.0000000000         0.0000000000        15.4156725503       -4.3559656791      -94.9464223400
atom        16.7330000000       15.9617000000       14.2708000000 C         0.0000000000         0.0000000000       -29.5598480982      -60.5570870781      -22.7809763588
atom        15.8982000000       14.3119000000       15.7395000000 C         0.0000000000         0.0000000000        97.2557308800       44.6212582652      -92.4987394888
atom        12.6897000000       13.0207000000       14.4286000000 O         0.0000000000         0.0000000000       307.9089244782      145.6205617175       21.7884091909
atom        14.5587000000       13.4262000000       13.2989000000 O         0.0000000000         0.0000000000      -154.6722016327       36.0784479352      293.1181457685
atom        15.2040000000       16.3160000000       13.8552000000 N         0.0000000000         0.0000000000        58.4708361820      -12.0198100072      151.4267297883
atom        14.4425000000       14.4665000000       15.5483000000 N         0.0000000000         0.0000000000       152.2380155556      102.8032639497      -93.4684463095
atom        16.9553000000       14.8379000000       15.1925000000 N         0.0000000000         0.0000000000      -316.8214954110       83.0107364829        3.2458984950
atom        13.8751000000       13.5351000000       14.3821000000 N         0.0000000000         0.0000000000       -85.7234000025      -90.9626170266     -228.6742474725
energy     -2855.3893268934
charge 0
end
begin
comment generated by PY
lattice        30.0000000000         0.0000000000         0.0000000000
lattice         0.0000000000        30.0000000000         0.0000000000
lattice         0.0000000000         0.0000000000        30.0000000000
atom        14.0662000000       16.8043000000       15.5009000000 H         0.0000000000         0.0000000000        10.6179494674     -103.1361313830      -84.3009562114
atom        13.3646000000       15.9656000000       13.9324000000 H         0.0000000000         0.0000000000       106.6941791731       11.5992350852       89.9988078479
atom        17.6006000000       16.7488000000       14.1837000000 H         0.0000000000         0.0000000000      -106.8602509202      -51.7315643903       81.1964604039
atom        16.7595000000       16.9384000000       15.7770000000 H         0.0000000000         0.0000000000        -7.2683132733      -73.8352721089     -101.7753733164
atom        16.3041000000       13.0421000000       15.1981000000 H         0.0000000000         0.0000000000       -45.1566679064      131.0053329762       12.3821612293
atom        15.2137000000       17.7543000000       13.7315000000 H         0.0000000000         0.0000000000        37.8634882489     -134.3085448549       40.8815945649
atom        14.2366000000       16.1012000000       14.6530000000 C         0.0000000000         0.0000000000        89.2671314401       34.7351950666      -46.9078979056
atom        16.7384000000       16.3405000000       14.8448000000 C         0.0000000000         0.0000000000         5.1776790151      -34.8217358515      -46.4770960501
atom        16.0308000000       14.1248000000       15.2350000000 C         0.0000000000         0.0000000000        49.2789534533      134.5172768704      -65.7848007286
atom        12.5341000000       13.1693000000       14.6467000000 O         0.0000000000         0.0000000000       331.6810403395       53.3493581725        4.8068149462
atom        14.3001000000       12.8132000000       13.3892000000 O         0.0000000000         0.0000000000       -86.1191156194      121.8098321284      287.9007736918
atom        15.4524000000       16.6806000000       13.9539000000 N         0.0000000000         0.0000000000       -54.7260924090      -44.9484675173      163.2330751576
atom        14.5938000000       14.4484000000       15.2880000000 N         0.0000000000         0.0000000000       145.0970782817       -2.9657242698     -100.4992700008
atom        17.0225000000       14.9542000000       15.0815000000 N         0.0000000000         0.0000000000      -308.6262705298       18.3415583080        4.5464797639
atom        13.7970000000       13.3213000000       14.5046000000 N         0.0000000000         0.0000000000      -166.9217187607      -59.6111482316     -239.2007764532
energy     -2827.9064387407
charge 0
end
begin
comment generated by PY
lattice        30.0000000000         0.0000000000         0.0000000000
lattice         0.0000000000        30.0000000000         0.0000000000
lattice         0.0000000000         0.0000000000        30.0000000000
atom        14.4026000000       16.4207000000       16.2361000000 H         0.0000000000         0.0000000000       -14.3511173823      -70.0355952253     -112.6877213590
atom        13.1237000000       15.9857000000       15.0458000000 H         0.0000000000         0.0000000000       135.4064081988      -19.5312222908       15.9727558849
atom        17.0904000000       16.1617000000       13.2856000000 H         0.0000000000         0.0000000000       -68.8770981222        3.7517486177      110.8317088241
atom        17.0684000000       16.9753000000       14.8268000000 H         0.0000000000         0.0000000000       -51.2851179148      -95.7943612090      -51.9781601224
atom        16.4470000000       13.3621000000       16.0370000000 H         0.0000000000         0.0000000000       -54.3987880440       90.3974714725      -59.1047208639
atom        14.9500000000       17.5922000000       13.7871000000 H         0.0000000000         0.0000000000        -0.8894333623     -140.9263293183       59.2053240624
atom        14.2229000000       15.9042000000       15.2408000000 C         0.0000000000         0.0000000000        47.7568188411        1.7218541461      -24.4715652577
atom        16.5918000000       16.1753000000       14.2737000000 C         0.0000000000         0.0000000000       -25.3452300189      -70.6318877665        7.7706701592
atom        16.0569000000       14.2124000000       15.5196000000 C         0.0000000000         0.0000000000        62.4662127469       73.0209044614     -133.4383298156
atom        12.7209000000       13.7843000000       13.9829000000 O         0.0000000000         0.0000000000       322.6957653802      -32.0808633942       95.2262196589
atom        14.5578000000       12.5404000000       13.7950000000 O         0.0000000000         0.0000000000      -142.5100341227      271.2006934268      136.0495155986
atom        15.0217000000       16.5113000000       14.1112000000 N         0.0000000000         0.0000000000        80.8757550908      -36.2536030863      117.6643646259
atom        14.5823000000       14.3500000000       15.5384000000 N         0.0000000000         0.0000000000       118.6751036757      140.5425569145     -136.8212217187
atom        16.9628000000       14.8719000000       14.8629000000 N         0.0000000000         0.0000000000      -297.6529242839       58.4132953548      100.9256833859
atom        13.9223000000       13.5700000000       14.2878000000 N         0.0000000000         0.0000000000      -112.5661176218     -173.7954851034     -125.1455461231
energy     -2883.0212105556
charge 0
end
begin
comment generated by PY
lattice        30.0000000000         0.0000000000         0.0000000000
lattice         0.0000000000        30.0000000000         0.0000000000
lattice         0.0000000000         0.0000000000        30.0000000000
atom        13.9723000000       16.1985000000       16.0478000000 H         0.0000000000         0.0000000000        40.9077500095      -39.8323164192      -76.5221106898
atom        13.2050000000       15.8583000000       14.7075000000 H         0.0000000000         0.0000000000       122.7107455535      -14.8036662554       27.1641452841
atom        17.3748000000       17.0307000000       14.1357000000 H         0.0000000000         0.0000000000      -103.5739638917      -64.4143746303       57.0826136188
atom        16.9361000000       16.6091000000       15.7636000000 H         0.0000000000         0.0000000000       -47.9979474493      -16.4719825602     -118.1263755081
atom        16.4875000000       13.0866000000       14.9249000000 H         0.0000000000         0.0000000000       -64.6995219309      135.4057966720        2.2028923529
atom        14.9741000000       17.8838000000       14.5390000000 H         0.0000000000         0.0000000000         8.9578401562     -113.2267812872       -1.4981609215
atom        14.2081000000       15.8541000000       15.1094000000 C         0.0000000000         0.0000000000         9.4294691835       19.8066889771       -6.7632538642
atom        16.6127000000       16.4500000000       14.7026000000 C         0.0000000000         0.0000000000        15.4295652141      -54.7090669697       -4.8359574684
atom        16.0945000000       14.1935000000       14.9341000000 C         0.0000000000         0.0000000000        93.4709627488       53.8226909353      -62.2110893815
atom        12.9635000000       13.8034000000       13.5805000000 O         0.0000000000         0.0000000000       266.4985701675      -82.3905797702      191.3939084338
atom        14.0643000000       12.1262000000       14.5640000000 O         0.0000000000         0.0000000000        -7.2749246863      330.9519990777      -60.5740197356
atom        15.1164000000       16.8582000000       14.3611000000 N         0.0000000000         0.0000000000        78.3492270595     -129.4977931719      134.6309161374
atom        14.6747000000       14.3035000000       15.3634000000 N         0.0000000000         0.0000000000       109.4847385496      134.1012369144     -195.4411317066
atom        17.0197000000       15.0157000000       14.5202000000 N         0.0000000000         0.0000000000      -326.8251715388       13.4696863668      149.1644387651
atom        13.9372000000       13.3889000000       14.3196000000 N         0.0000000000         0.0000000000      -194.8676930241     -172.2115578792      -35.6660523164
energy     -2869.5338183464
charge 0
end
begin
comment generated by PY
lattice        30.0000000000         0.0000000000         0.0000000000
lattice         0.0000000000        30.0000000000         0.0000000000
lattice         0.0000000000         0.0000000000        30.0000000000
atom        14.4734000000       16.3364000000       16.5390000000 H         0.0000000000         0.0000000000         3.3425128267      -81.9977491224      -89.9844623272
atom        13.1834000000       15.9421000000       15.6452000000 H         0.0000000000         0.0000000000       118.5555372537      -31.1934215055      -22.3925004709
atom        16.6534000000       16.6008000000       13.1126000000 H         0.0000000000         0.0000000000       -48.1930740425      -37.9403638688      114.0554621449
atom        16.9600000000       17.1380000000       14.6798000000 H         0.0000000000         0.0000000000       -65.0188374574      -98.6054866138      -51.7644960501
atom        16.6367000000       13.2385000000       15.3254000000 H         0.0000000000         0.0000000000       -36.6938291344       89.3689133828      -24.7663951398
atom        14.5953000000       17.8539000000       14.7003000000 H         0.0000000000         0.0000000000        30.3934703263     -155.0387733985      -13.3081197495
atom        14.2669000000       15.8476000000       15.6006000000 C         0.0000000000         0.0000000000        12.0322940003       90.7352106126      -63.3083551647
atom        16.3800000000       16.3467000000       14.1496000000 C         0.0000000000         0.0000000000        40.2690749488      -23.2975804883       47.5939181333
atom        16.2227000000       14.1547000000       15.1055000000 C         0.0000000000         0.0000000000        -2.1595063561      127.4152430456      -96.4071726491
atom        13.7025000000       14.0268000000       13.2791000000 O         0.0000000000         0.0000000000        78.2340315570     -145.4646096126      292.1656821227
atom        13.5823000000       12.1995000000       14.5366000000 O         0.0000000000         0.0000000000       115.5237836797      319.4422470558      -18.7723012697
atom        14.7615000000       16.7168000000       14.5177000000 N         0.0000000000         0.0000000000        67.5946335247      -59.4899698327      105.9834389377
atom        14.8253000000       14.1437000000       15.5037000000 N         0.0000000000         0.0000000000       103.2044629034      121.5581856266     -107.7093783681
atom        16.9690000000       15.0611000000       14.4702000000 N         0.0000000000         0.0000000000      -299.2778494119      -14.0207564772      120.3666447765
atom        13.9695000000       13.4014000000       14.3626000000 N         0.0000000000         0.0000000000      -117.8069795575     -101.4708057430     -191.7518449260
energy     -2838.9420757166
charge 0
end
begin
comment generated by PY
lattice        30.0000000000         0.0000000000         0.0000000000
lattice         0.0000000000        30.0000000000         0.0000000000
lattice         0.0000000000         0.0000000000        30.0000000000
atom        14.8828000000       16.1181000000       16.5201000000 H         0.0000000000         0.0000000000       -53.6708504438      -59.5578109576      -93.0719201766
atom        13.3247000000       15.8022000000       15.8957000000 H         0.0000000000         0.0000000000       101.8567528761      -15.8776884058      -35.9243316005
atom        16.7150000000       17.0834000000       13.4481000000 H         0.0000000000         0.0000000000       -39.3145402978      -74.0689917368      106.0774572358
atom        16.9632000000       17.1885000000       15.1888000000 H         0.0000000000         0.0000000000       -72.9395863246      -85.2962242312      -86.3655240174
atom        16.7146000000       13.2087000000       14.9905000000 H         0.0000000000         0.0000000000       -68.1278028793      119.2014178128      -11.1318443835
atom        14.1589000000       16.4176000000       13.7078000000 H         0.0000000000         0.0000000000        88.5219573370       16.7971209665       79.3384347686
atom        14.3412000000       15.7258000000       15.6752000000 C         0.0000000000         0.0000000000       107.5713135604        8.7613069721     -103.0557060266
atom        16.4350000000       16.5335000000       14.3876000000 C         0.0000000000         0.0000000000       -23.2201324830      -62.5669999469      -13.3876442547
atom        16.2193000000       14.2084000000       14.9247000000 C         0.0000000000         0.0000000000        24.6717691741      131.3803965678      -67.0880797660
atom        13.8984000000       13.8079000000       13.1678000000 O         0.0000000000         0.0000000000       -27.8060259084      -93.3414056873      306.4144311924
atom        13.3564000000       12.2898000000       14.6829000000 O         0.0000000000         0.0000000000       118.0600155796      302.4286134971      -63.3748937535
atom        14.7993000000       16.6367000000       14.5338000000 N         0.0000000000         0.0000000000        38.6359107769     -145.1746097312       83.3779237773
atom        14.8161000000       14.2423000000       15.4244000000 N         0.0000000000         0.0000000000       101.9231756230      126.3183994750      -65.4848596174
atom        17.0017000000       15.1906000000       14.4007000000 N         0.0000000000         0.0000000000      -285.5911121936      -29.2969972883      149.2166228193
atom        13.8160000000       13.3906000000       14.3603000000 N         0.0000000000         0.0000000000       -10.5710674573     -139.7055573064     -185.5401631367
energy     -2877.5960468857
charge 0
end
begin
comment generated by PY
lattice        30.0000000000         0.0000000000         0.0000000000
lattice         0.0000000000        30.0000000000         0.0000000000
lattice         0.0000000000         0.0000000000        30.0000000000
atom        14.6538000000       15.8934000000       16.6031000000 H         0.0000000000         0.0000000000       -24.1079190479      -17.3723039317     -113.2875138990
atom        13.2442000000       15.7178000000       15.6765000000 H         0.0000000000         0.0000000000       119.8251231082      -13.0387598915      -20.7441936433
atom        16.8048000000       17.3329000000       13.7986000000 H         0.0000000000         0.0000000000       -57.3225973164      -96.8517730977       71.6688630431
atom        16.8728000000       17.0264000000       15.3915000000 H         0.0000000000         0.0000000000       -57.2691168185      -61.2740825549      -79.9850291595
atom        16.7872000000       13.2900000000       14.5591000000 H         0.0000000000         0.0000000000       -78.8876733468       86.0984435258       17.3296038072
atom        14.4384000000       16.6124000000       13.6325000000 H         0.0000000000         0.0000000000        41.7390146082       10.1630722012      119.6885629806
atom        14.3157000000       15.7073000000       15.6126000000 C         0.0000000000         0.0000000000        46.5340520041       35.1962969678      -46.6589936745
atom        16.4074000000       16.5991000000       14.5320000000 C         0.0000000000         0.0000000000       -27.2798184461      -42.0163352651      -22.7095672298
atom        16.2257000000       14.1799000000       14.7029000000 C         0.0000000000         0.0000000000        49.2296203825      173.0202408051      -54.3869750678
atom        14.1657000000       13.5539000000       13.1493000000 O         0.0000000000         0.0000000000       -83.6282190533        6.7548422467      310.7669467490
atom        13.1133000000       12.4261000000       14.7942000000 O         0.0000000000         0.0000000000       169.1051721342      283.6844069956      -66.9381103634
atom        14.8139000000       16.7780000000       14.6440000000 N         0.0000000000         0.0000000000        90.8900911926     -203.5703487486       24.8048996652
atom        14.8708000000       14.1011000000       15.4079000000 N         0.0000000000         0.0000000000        38.0598415825      128.0113519256     -145.5811283373
atom        16.9247000000       15.2212000000       14.2649000000 N         0.0000000000         0.0000000000      -257.6303816139      -51.3761751294      175.1799842116
atom        13.8332000000       13.4747000000       14.4229000000 N         0.0000000000         0.0000000000        30.7431617518     -237.4294768672     -169.1460660215
energy     -2840.0468925270
charge 0
end
begin
comment generated by PY
lattice        30.0000000000         0.0000000000         0.0000000000
lattice         0.0000000000        30.0000000000         0.0000000000
lattice         0.0000000000         0.0000000000        30.0000000000
atom        14.8425000000       15.9261000000       16.6760000000 H         0.0000000000         0.0000000000       -27.4687206591      -44.8109952594     -113.2382513994
atom        13.3681000000       15.6567000000       15.8919000000 H         0.0000000000         0.0000000000       126.2837056099      -13.1120396218      -30.3534373195
atom        16.5272000000       17.2418000000       13.4666000000 H         0.0000000000         0.0000000000       -33.7578908427      -88.3517728468      110.6250897740
atom        16.9197000000       17.2372000000       15.1321000000 H         0.0000000000         0.0000000000       -77.6729354181      -88.2475227673      -67.0432052521
atom        16.8369000000       13.2563000000       14.7467000000 H         0.0000000000         0.0000000000       -72.9115931739      111.6020508995        8.9799671842
atom        14.0790000000       16.7305000000       13.9585000000 H         0.0000000000         0.0000000000        76.4463378916       -3.4809694160       68.4931806324
atom        14.4525000000       15.6390000000       15.7107000000 C         0.0000000000         0.0000000000       -14.3127256522       40.0549731556      -50.3956383759