begin
comment generated by PY
lattice        30.0000000000         0.0000000000         0.0000000000
lattice         0.0000000000        30.0000000000         0.0000000000
lattice         0.0000000000         0.0000000000        30.0000000000
atom        13.7859000000       15.4227000000       14.3516000000 H         0.0000000000         0.0000000000        -3.4585929793      -54.8604948196      107.4883619506
atom        12.6998000000       14.6257000000       15.6201000000 H         0.0000000000         0.0000000000       118.8141459115       27.8075226692      -21.6369737631
atom        13.7026000000       14.9205000000       15.3150000000 C         0.0000000000         0.0000000000       192.0191367570      -28.2392007146      102.6229383894
atom        16.4219000000       16.4392000000       15.4974000000 O         0.0000000000         0.0000000000       -99.0627427483     -326.3714420890       -7.2817724477
atom        16.9022000000       14.3267000000       14.8555000000 O         0.0000000000         0.0000000000      -223.7643608392      209.5704690028      157.6913221694
atom        14.7485000000       14.6744000000       16.0679000000 N         0.0000000000         0.0000000000      -172.9808475187       93.3021681944     -230.4821512132
atom        16.1077000000       15.1832000000       15.4187000000 N         0.0000000000         0.0000000000       188.4333114170       78.7918008174     -108.4016250854
energy     -1338.1095113414
charge 0
end
begin
comment generated by PY
lattice        30.0000000000         0.0000000000         0.0000000000
lattice         0.0000000000        30.0000000000         0.0000000000
lattice         0.0000000000         0.0000000000        30.0000000000
atom        14.2633000000       13.3987000000       15.0165000000 H         0.0000000000         0.0000000000       -18.4249516855       71.6192411278       28.0775779244
atom        12.8694000000       14.1266000000       15.7465000000 H         0.0000000000         0.0000000000       100.2884417063       28.3453832668      -27.8367192390
atom        13.8680000000       14.2239000000       15.4396000000 C         0.0000000000         0.0000000000       142.3540567956      194.7548290848       80.5643237362
atom        16.8358000000       16.3123000000       15.8804000000 O         0.0000000000         0.0000000000      -217.7101187866     -252.2412582249     -127.7952646485
atom        16.5126000000       14.4066000000       14.6126000000 O         0.0000000000         0.0000000000      -109.7880231073      246.8680764895      198.2801550168
atom        14.5524000000       15.3276000000       15.7743000000 N         0.0000000000         0.0000000000       -86.8736277829     -253.5120480299      -95.4316168470
atom        16.0877000000       15.3616000000       15.3888000000 N         0.0000000000         0.0000000000       190.1546997998      -35.8336237142      -55.8579328823
energy     -1334.8949480066
charge 0
end
begin
comment generated by PY
lattice        30.0000000000         0.0000000000         0.0000000000
lattice         0.0000000000        30.0000000000         0.0000000000
lattice         0.0000000000         0.0000000000        30.0000000000
atom        14.5793000000       14.2363000000       16.9312000000 H         0.0000000000         0.0000000000       -39.7510244492       43.4060404623      -47.4863093054
atom        12.9798000000       14.5038000000       16.3923000000 H         0.0000000000         0.0000000000        76.9471252942       11.6891876324      -32.9404955529
atom        13.9684000000       14.6179000000       16.2367000000 C         0.0000000000         0.0000000000       139.0759430304       64.4879989421     -221.0844774365
atom        16.5624000000       15.7745000000       16.2509000000 O         0.0000000000         0.0000000000      -162.9653811047      -74.3248546918     -271.7103724065
atom        16.8268000000       14.7931000000       14.2950000000 O         0.0000000000         0.0000000000      -237.8153256528      155.5324211312      181.3530722227
atom        14.4595000000       15.0695000000       15.1018000000 N         0.0000000000         0.0000000000       -41.1156749871      -65.1963481933      271.1429688684
atom        16.0175000000       15.3679000000       15.1341000000 N         0.0000000000         0.0000000000       265.6243609298     -135.5947452827      120.7260905497
energy     -1337.9816115026
charge 0
end
begin
comment generated by PY
lattice        30.0000000000         0.0000000000         0.0000000000
lattice         0.0000000000        30.0000000000         0.0000000000
lattice         0.0000000000         0.0000000000        30.0000000000
atom        13.9402000000       16.2295000000       15.8921000000 H         0.0000000000         0.0000000000       -18.8564280611     -115.2747900190      -12.3650956425
atom        12.7973000000       14.7939000000       16.0529000000 H         0.0000000000         0.0000000000       102.8654752632       29.3960520842      -29.7081147513
atom        13.7554000000       15.1705000000       15.8092000000 C         0.0000000000         0.0000000000       195.7710844432     -118.1468802534      -30.7033341173
atom        16.7613000000       15.5076000000       16.3294000000 O         0.0000000000         0.0000000000      -192.6483634892     -108.1550100815     -258.0180610016
atom        16.5523000000       15.3378000000       14.0929000000 O         0.0000000000         0.0000000000      -142.0215117025      -67.0720192887      306.1025519964
atom        14.7189000000       14.3479000000       15.5425000000 N         0.0000000000         0.0000000000      -149.6290392396      258.4410566667       45.0164067182
atom        16.0858000000       15.1348000000       15.2999000000 N         0.0000000000         0.0000000000       204.5192058465      120.8114908916      -20.3240022019
energy     -1348.4667138348
charge 0
end
begin
comment generated by PY
lattice        30.0000000000         0.0000000000         0.0000000000
lattice         0.0000000000        30.0000000000         0.0000000000
lattice         0.0000000000         0.0000000000        30.0000000000
atom        13.8067000000       15.3543000000       14.1608000000 H         0.0000000000         0.0000000000         2.1831400122      -40.0093809032      132.8176046730
atom        12.6651000000       14.6911000000       15.5680000000 H         0.0000000000         0.0000000000       133.0322812145       17.4083067191      -29.0591094728
atom        13.7256000000       14.9336000000       15.2384000000 C         0.0000000000         0.0000000000       171.3918889420      -47.1128966897       94.4186857832
atom        17.1422000000       15.1828000000       16.2465000000 O         0.0000000000         0.0000000000      -287.9823605612       37.4750252813     -203.4031643095
atom        16.1446000000       15.5025000000       14.1838000000 O         0.0000000000         0.0000000000        -1.4258944023      -41.6738601856      331.3977117747
atom        14.7585000000       14.6509000000       16.0105000000 N         0.0000000000         0.0000000000      -188.6675871114      126.5177099416     -205.4331896094
atom        16.1215000000       15.2879000000       15.4708000000 N         0.0000000000         0.0000000000       171.4689988457      -52.6049041634     -120.7390388391
energy     -1318.2765020460
charge 0
end
begin
comment generated by PY
lattice        30.0000000000         0.0000000000         0.0000000000
lattice         0.0000000000        30.0000000000         0.0000000000
lattice         0.0000000000         0.0000000000        30.0000000000
atom        14.1871000000       13.3287000000       15.0603000000 H         0.0000000000         0.0000000000       -46.3793331400      124.0577934688       53.6818351085
atom        12.6285000000       14.3300000000       15.8898000000 H         0.0000000000         0.0000000000       145.3024228980        8.8129870937      -32.6732729687
atom        13.7914000000       14.3280000000       15.5628000000 C         0.0000000000         0.0000000000       141.7083244059      123.1611385652       52.9432738619
atom        16.9446000000       14.7870000000       16.1026000000 O         0.0000000000         0.0000000000      -249.9098210894      102.8020729853     -194.2041171875
atom        16.4873000000       15.9580000000       14.2828000000 O         0.0000000000         0.0000000000      -149.2371645439     -179.3375302067      247.7123067845
atom        14.5770000000       15.3109000000       15.8714000000 N         0.0000000000         0.0000000000      -110.6732617920     -239.9969915823     -131.7445089556
atom        16.0562000000       15.2498000000       15.2956000000 N         0.0000000000         0.0000000000       269.1897102008       60.5003696760        4.2843533569
energy     -1308.2634862722
charge 0
end
begin
comment generated by PY
lattice        30.0000000000         0.0000000000         0.0000000000
lattice         0.0000000000        30.0000000000         0.0000000000
lattice         0.0000000000         0.0000000000        30.0000000000
atom        14.4523000000       14.4741000000       17.1821000000 H         0.0000000000         0.0000000000       -58.5815678340       16.9209436686     -113.8607966012
atom        12.7750000000       14.2918000000       16.2127000000 H         0.0000000000         0.0000000000       138.6311234444       37.0146978058      -12.9530825431
atom        13.9046000000       14.5810000000       16.2108000000 C         0.0000000000         0.0000000000       115.0821659318       49.5127378676     -164.9432915630
atom        16.8241000000       14.4351000000       15.7878000000 O         0.0000000000         0.0000000000      -226.1062084950      208.0434127997     -118.9942201640
atom        16.5861000000       16.3220000000       14.6505000000 O         0.0000000000         0.0000000000      -179.8725834563     -248.9607832750      153.7730019581
atom        14.5006000000       14.9442000000       15.1067000000 N         0.0000000000         0.0000000000       -59.0399044585      -56.2193130952      282.8742320715
atom        16.0307000000       15.3063000000       15.2693000000 N         0.0000000000         0.0000000000       269.8861518070       -6.3114957714      -25.8949900977
energy     -1321.6280112178
charge 0
end
begin
comment generated by PY
lattice        30.0000000000         0.0000000000         0.0000000000
lattice         0.0000000000        30.0000000000         0.0000000000
lattice         0.0000000000         0.0000000000        30.0000000000
atom        13.8199000000       15.4314000000       14.3522000000 H         0.0000000000         0.0000000000        -7.9438441287      -48.1743761680      109.0730047291
atom        12.6723000000       14.7738000000       15.6537000000 H         0.0000000000         0.0000000000       126.6966121873       16.2411296974      -22.3458833825
atom        13.7107000000       14.9757000000       15.3347000000 C         0.0000000000         0.0000000000       196.9840757062      -34.9968663736       88.6098631614
atom        16.9589000000       14.2643000000       14.9759000000 O         0.0000000000         0.0000000000      -225.9894814733      243.4881541068      113.0505548203
atom        16.3028000000       16.4591000000       15.4146000000 O         0.0000000000         0.0000000000       -36.1186247262     -340.0552920607      -11.1980701311
atom        14.7744000000       14.6908000000       16.0520000000 N         0.0000000000         0.0000000000      -183.3628391896       96.0456112849     -219.8166561568
atom        16.1456000000       15.1569000000       15.3724000000 N         0.0000000000         0.0000000000       129.7341116242       67.4522395131      -57.3728791615
energy     -1338.5800080162
charge 0
end
begin
comment generated by PY
lattice        30.0000000000         0.0000000000         0.0000000000
lattice         0.0000000000        30.0000000000         0.0000000000
lattice         0.0000000000         0.0000000000        30.0000000000
atom        14.5510000000       13.5115000000       16.3191000000 H         0.0000000000         0.0000000000       -53.7401133492       77.3879665485      -60.2722755815
atom        12.9593000000       14.1420000000       15.8252000000 H         0.0000000000         0.0000000000        83.2099682433       19.8037623507       -1.7333483699
atom        13.9661000000       14.2534000000       15.8343000000 C         0.0000000000         0.0000000000       124.8378579321      210.3374325279      -56.9143924760
atom        16.6000000000       14.4968000000       14.5079000000 O         0.0000000000         0.0000000000      -166.6743404347      210.4911608357      204.6479757823
atom        16.7759000000       16.1636000000       16.0084000000 O         0.0000000000         0.0000000000      -215.5495894313     -206.0924380531     -171.2226742479
atom        14.4575000000       15.3892000000       15.3769000000 N         0.0000000000         0.0000000000       -10.4303378325     -296.9372883420      102.5496820384
atom        16.0400000000       15.3325000000       15.3222000000 N         0.0000000000         0.0000000000       238.3475548724      -14.9901419887      -17.0558370849
energy     -1345.7350815361
charge 0
end
begin
comment generated by PY
lattice        30.0000000000         0.0000000000         0.0000000000
lattice         0.0000000000        30.0000000000         0.0000000000
lattice         0.0000000000         0.0000000000        30.0000000000
atom        14.1883000000       15.9328000000       16.6569000000 H         0.0000000000         0.0000000000       -16.8648913355      -74.7800753543      -60.4819944179
atom        12.9834000000       14.7927000000       16.2642000000 H         0.0000000000         0.0000000000        47.0378639457       18.4887526788      -33.5920641800
atom        13.8682000000       15.1506000000       16.0609000000 C         0.0000000000         0.0000000000       204.1349032175     -121.6858076061     -128.3938315981
atom        16.7000000000       15.1353000000       14.1341000000 O         0.0000000000         0.0000000000      -146.7077575187      -59.0806105335      300.9311465190
atom        16.5238000000       15.7418000000       16.3020000000 O         0.0000000000         0.0000000000      -101.7310234313     -207.0146322966     -238.9182877566
atom        14.6422000000       14.4713000000       15.2334000000 N         0.0000000000         0.0000000000       -98.3329694129      191.8512729851      225.9745502574
atom        16.1374000000       15.0136000000       15.3075000000 N         0.0000000000         0.0000000000       112.4647745352      252.2211001266      -65.5202957632
energy     -1345.5303859109
charge 0
end
begin
comment generated by PY
lattice        30.0000000000         0.0000000000         0.0000000000
lattice         0.0000000000        30.0000000000         0.0000000000
lattice         0.0000000000         0.0000000000        30.0000000000
atom        13.7935000000       15.2135000000       14.2115000000 H         0.0000000000         0.0000000000        -6.2569172833      -36.0401039709       93.4050824161
atom        12.7403000000       14.3874000000       15.3992000000 H         0.0000000000         0.0000000000        97.5938237297       42.8619018337       -3.9909471972
atom        13.6663000000       14.8193000000       15.1743000000 C         0.0000000000         0.0000000000       225.9619173719        2.6042906962      114.9163993172
atom        16.2261000000       15.4820000000       14.2265000000 O         0.0000000000         0.0000000000       -46.9694203997      -52.4506750387      317.7867851273
atom        17.1740000000       15.2271000000       16.2299000000 O         0.0000000000         0.0000000000      -307.5816624406        4.7645099340     -166.8802520922
atom        14.6878000000       14.7806000000       16.0173000000 N         0.0000000000         0.0000000000      -176.1407481346       22.4045652850     -205.7365435526
atom        16.1091000000       15.2607000000       15.4975000000 N         0.0000000000         0.0000000000       213.3926071566       15.8556943213     -149.4997240185
energy     -1339.1852612395
charge 0
end
begin
comment generated by PY
lattice        30.0000000000         0.0000000000         0.0000000000
lattice         0.0000000000        30.0000000000         0.0000000000
lattice         0.0000000000         0.0000000000        30.0000000000
atom        14.2699000000       13.4113000000       15.1286000000 H         0.0000000000         0.0000000000       -37.1377920989       97.2610420487       47.1509769432
atom        12.7601000000       14.2867000000       15.7800000000 H         0.0000000000         0.0000000000       132.4312291382       14.9406368108      -21.0419556303
atom        13.8630000000       14.3064000000       15.5588000000 C         0.0000000000         0.0000000000       119.6277577222      170.5796485409       18.0990253153
atom        16.3962000000       15.9102000000       14.2603000000 O         0.0000000000         0.0000000000       -92.6316893503     -172.0017994075      285.9161703512
atom        16.9569000000       14.7758000000       16.1852000000 O         0.0000000000         0.0000000000      -241.8563529200      123.4030823212     -214.5911254782
atom        14.5620000000       15.3798000000       15.7579000000 N         0.0000000000         0.0000000000       -71.8878359399     -279.6563812633      -74.2460180745
atom        16.0844000000       15.2639000000       15.3469000000 N         0.0000000000         0.0000000000       191.4544834486       45.4742109492      -41.2867734267
energy     -1338.3001455365
charge 0
end
begin
comment generated by PY
lattice        30.0000000000         0.0000000000         0.0000000000
lattice         0.0000000000        30.0000000000         0.0000000000
lattice         0.0000000000         0.0000000000        30.0000000000
atom        14.7015000000       13.9622000000       16.9183000000 H         0.0000000000         0.0000000000       -70.8054705918       54.0676170586     -105.2884848085
atom        12.9325000000       14.1189000000       16.2080000000 H         0.0000000000         0.0000000000       123.7355432834       46.7839472190      -23.5391778804
atom        14.0131000000       14.4070000000       16.1053000000 C         0.0000000000         0.0000000000        92.2938001094      122.3433361527     -126.7021033872
atom        16.5646000000       16.2115000000       14.5310000000 O         0.0000000000         0.0000000000      -160.7234967079     -249.1054971851      178.8739587735
atom        16.7759000000       14.5026000000       15.9939000000 O         0.0000000000         0.0000000000      -207.0278442445      182.8507275374     -187.6491371685
atom        14.4596000000       15.2208000000       15.1541000000 N         0.0000000000         0.0000000000        -8.8173277558     -216.8349648036      245.9448412322
atom        16.0292000000       15.2771000000       15.2327000000 N         0.0000000000         0.0000000000       231.3442159074       59.8948570816       18.3601032389
energy     -1320.8855658097
charge 0
end
begin
comment generated by PY
lattice        30.0000000000         0.0000000000         0.0000000000
lattice         0.0000000000        30.0000000000         0.0000000000
lattice         0.0000000000         0.0000000000        30.0000000000
atom        14.1659000000       15.5077000000       17.0998000000 H         0.0000000000         0.0000000000       -37.9353520422      -68.4502542235     -123.1242129580
atom        12.7381000000       14.6923000000       16.0089000000 H         0.0000000000         0.0000000000       127.4474687019       19.2932705695        3.4989301754
atom        13.8154000000       14.9298000000       16.0974000000 C         0.0000000000         0.0000000000       145.7697519686      -20.5953592565     -138.5396338964
atom        16.3352000000       16.3774000000       14.8064000000 O         0.0000000000         0.0000000000       -87.0802269979     -314.8793060841      118.8496626303
atom        17.0328000000       14.3966000000       15.7263000000 O         0.0000000000         0.0000000000      -261.4398490089      193.5066963308     -116.5081781690
atom        14.6028000000       14.6375000000       15.1157000000 N         0.0000000000         0.0000000000       -96.3905379216      116.8468317250      254.3216378915
atom        16.0764000000       15.1921000000       15.2702000000 N         0.0000000000         0.0000000000       209.6274453000       74.2776439994        1.5017212656
energy     -1317.4781301284
charge 0
end
begin
comment generated by PY
lattice        30.0000000000         0.0000000000         0.0000000000
lattice         0.0000000000        30.0000000000         0.0000000000
lattice         0.0000000000         0.0000000000        30.0000000000
atom        13.6004000000       16.0918000000       14.7931000000 H         0.0000000000         0.0000000000        12.5854842111     -115.3067363158       79.5321366332
atom        12.6405000000       14.7636000000       15.8368000000 H         0.0000000000         0.0000000000       123.2949602692       32.0131438816      -35.4987991971
atom        13.6349000000       15.1251000000       15.4777000000 C         0.0000000000         0.0000000000       193.1890461936      -59.1335544863       43.7788861363
atom        16.2327000000       16.4055000000       15.2388000000 O         0.0000000000         0.0000000000       -37.4293764655     -331.7905342295       27.9643293062
atom        17.1513000000       14.3241000000       15.2039000000 O         0.0000000000         0.0000000000      -286.0504916251      200.8917326219       40.7776980318
atom        14.7309000000       14.5313000000       15.8550000000 N         0.0000000000         0.0000000000      -196.6344253174      165.4786923089     -117.9284378155
atom        16.1322000000       15.1346000000       15.3423000000 N         0.0000000000         0.0000000000       191.0449827340      107.8480562192      -38.6260130949
energy     -1322.5305696269
charge 0
end
begin
comment generated by PY
lattice        30.0000000000         0.0000000000         0.0000000000
lattice         0.0000000000        30.0000000000         0.0000000000
lattice         0.0000000000         0.0000000000        30.0000000000
atom        14.6400000000       13.5212000000       14.6990000000 H         0.0000000000         0.0000000000       -66.0934271106      104.8981803595       73.4865952219
atom        12.8982000000       14.0339000000       15.4461000000 H         0.0000000000         0.0000000000       128.2067117538       48.7581279189      -12.3577154249
atom        13.9952000000       14.3073000000       15.3077000000 C         0.0000000000         0.0000000000       102.3020183867      118.5378704931      120.5833278240
atom        16.7060000000       16.3889000000       15.5661000000 O         0.0000000000         0.0000000000      -185.6056497850     -281.4962367910       36.6183463147
atom        16.5495000000       14.3406000000       14.7442000000 O         0.0000000000         0.0000000000      -121.4988223488      203.8666693838      210.9860593060
atom        14.5337000000       15.3036000000       15.9621000000 N         0.0000000000         0.0000000000       -41.6569670327     -260.1098510010     -189.8748805968
atom        16.0745000000       15.2999000000       15.5670000000 N         0.0000000000         0.0000000000       184.3466361366       65.5455396367     -239.4414426448
energy     -1313.2971813957
charge 0
end
begin
comment generated by PY
lattice        30.0000000000         0.0000000000         0.0000000000
lattice         0.0000000000        30.0000000000         0.0000000000
lattice         0.0000000000         0.0000000000        30.0000000000
atom        14.6001000000       13.5800000000       16.3763000000 H         0.0000000000         0.0000000000       -72.3618151748       73.8884245505      -56.4185753107
atom        12.8774000000       14.1439000000       15.9146000000 H         0.0000000000         0.0000000000       118.7570046586       29.3268657484       -8.3457437596
atom        13.9503000000       14.2968000000       15.8863000000 C         0.0000000000         0.0000000000       135.5211344920      157.2990545115      -72.5134076457
atom        16.6566000000       16.2115000000       16.0031000000 O         0.0000000000         0.0000000000      -174.9570547672     -223.4436493290     -193.6958683524
atom        16.6875000000       14.4525000000       14.5146000000 O         0.0000000000         0.0000000000      -163.7833844326      224.5348871017      187.5300244641
atom        14.4841000000       15.3127000000       15.3391000000 N         0.0000000000         0.0000000000       -35.7189335263     -233.3767517991      117.2083860729
atom        16.0656000000       15.3626000000       15.3033000000 N         0.0000000000         0.0000000000       192.5431487503      -28.2295077235       26.2360614707
energy     -1349.8279703255
charge 0
end
begin
comment generated by PY
lattice        30.0000000000         0.0000000000         0.0000000000
lattice         0.0000000000        30.0000000000         0.0000000000
lattice         0.0000000000         0.0000000000        30.0000000000
atom        14.1259000000       13.6379000000       14.6590000000 H         0.0000000000         0.0000000000       -24.7481057496       63.3834076389       66.3362132837
atom        12.7823000000       14.2914000000       15.6443000000 H         0.0000000000         0.0000000000       103.3910528087        4.4586086347      -10.6609619018
atom        13.7956000000       14.2912000000       15.3945000000 C         0.0000000000         0.0000000000       174.1529375534      171.3520648488       73.9664295321
atom        16.6958000000       16.4280000000       15.6421000000 O         0.0000000000         0.0000000000      -173.8898326286     -288.5264312421      -72.2018134145
atom        16.6638000000       14.3392000000       14.7862000000 O         0.0000000000         0.0000000000      -146.2883692545      258.5088933129      145.3764177868
atom        14.5866000000       15.1888000000       15.9445000000 N         0.0000000000         0.0000000000      -134.4826380338     -194.0005880866     -157.1494469640
atom        16.1189000000       15.3586000000       15.3641000000 N         0.0000000000         0.0000000000       201.8640322439      -15.1761081671      -45.6668613828
energy     -1357.0491135026
charge 0
end
begin
comment generated by PY
lattice        30.0000000000         0.0000000000         0.0000000000
lattice         0.0000000000        30.0000000000         0.0000000000
lattice         0.0000000000         0.0000000000        30.0000000000
atom        14.1110000000       15.1275000000       14.3502000000 H         0.0000000000         0.0000000000       -29.2689818936      -19.3664786168       72.8898854304
atom        12.7805000000       14.7226000000       15.3695000000 H         0.0000000000         0.0000000000        89.3053426463       -3.4711182545       12.1720683747
atom        13.7812000000       14.8348000000       15.2571000000 C         0.0000000000         0.0000000000       234.8615537742        0.8468233275      135.0937085440
atom        16.3778000000       16.4662000000       15.3062000000 O         0.0000000000         0.0000000000       -94.3822991738     -315.9394726365       75.5961369219
atom        16.8590000000       14.3248000000       14.9543000000 O         0.0000000000         0.0000000000      -207.1159129117      209.9601151954      160.4695957042
atom        14.7605000000       14.7063000000       16.1618000000 N         0.0000000000         0.0000000000      -160.9995534087       76.8623025933     -257.5761379827
atom        16.0989000000       15.2104000000       15.4981000000 N         0.0000000000         0.0000000000       167.5988509673       51.1078383916     -198.6458569926
energy     -1344.0788223003
charge 0
end
begin
comment generated by PY
lattice        30.0000000000         0.0000000000         0.0000000000
lattice         0.0000000000        30.0000000000         0.0000000000
lattice         0.0000000000         0.0000000000        30.0000000000
atom        13.6185000000       16.1983000000       15.6176000000 H         0.0000000000         0.0000000000        16.1810433376      -81.8992715583        4.6332164848
atom        12.7046000000       14.7280000000       15.9728000000 H         0.0000000000         0.0000000000       114.3342367606       35.2488653614      -29.2500677732
atom        13.6543000000       15.1870000000       15.7176000000 C         0.0000000000         0.0000000000       197.9178095313     -129.6035179397      -16.4952318355
atom        16.2015000000       16.4401000000       15.1002000000 O         0.0000000000         0.0000000000       -26.4808508982     -328.1754971403       42.6604158027
atom        17.1581000000       14.3459000000       15.3718000000 O         0.0000000000         0.0000000000      -296.5734217006      198.3303815450      -24.9052734242
atom        14.7396000000       14.4368000000       15.6004000000 N         0.0000000000         0.0000000000      -187.2964981391      201.4493512195       11.7707569699
atom        16.1289000000       15.1065000000       15.2890000000 N         0.0000000000         0.0000000000       181.9185411085      104.6503654518       11.5861537756
energy     -1327.8381308682
charge 0
end
begin
comment generated by PY
lattice        30.0000000000         0.0000000000         0.0000000000
lattice         0.0000000000        30.0000000000         0.0000000000
lattice         0.0000000000         0.0000000000        30.0000000000