begin
comment generated by PY
lattice        30.0000000000         0.0000000000         0.0000000000
lattice         0.0000000000        30.0000000000         0.0000000000
lattice         0.0000000000         0.0000000000        30.0000000000
atom        14.7550000000       16.0430000000       14.3703000000 H         0.0000000000         0.0000000000       -24.8701575188      -97.1465865336       72.5552774759
atom        14.6590000000       14.3069000000       14.2634000000 H         0.0000000000         0.0000000000       -14.5319041083       89.6731730432       84.0889383371
atom        17.6888000000       14.8837000000       16.3911000000 H         0.0000000000         0.0000000000       -98.9602025761        9.8383594074      -70.2723571170
atom        17.1330000000       15.0254000000       14.6329000000 H         0.0000000000         0.0000000000       -30.4376443311       -5.2056680565      107.8524362292
atom        12.4167000000       15.2858000000       14.5725000000 H         0.0000000000         0.0000000000        90.2063119657       -9.9186568954       80.0156029485
atom        14.5296000000       15.1431000000       14.9931000000 C         0.0000000000         0.0000000000       -31.3506120516        0.1373285368       26.9164953679
atom        16.8647000000       14.9731000000       15.6864000000 C         0.0000000000         0.0000000000      -216.8257663350        8.7438502383       49.0387383275
atom        15.6253000000       15.0151000000       16.0881000000 N         0.0000000000         0.0000000000       165.0976929335        5.2206708661     -226.8920497536
atom        13.0893000000       15.1964000000       15.4211000000 N         0.0000000000         0.0000000000       161.6724589612       -1.3424775457     -123.3032587549
energy     -1527.8028350898
charge 0
end
begin
comment generated by PY
lattice        30.0000000000         0.0000000000         0.0000000000
lattice         0.0000000000        30.0000000000         0.0000000000
lattice         0.0000000000         0.0000000000        30.0000000000
atom        14.6931000000       16.0184000000       14.3975000000 H         0.0000000000         0.0000000000       -16.5043901237      -83.9748121356       65.7123664384
atom        14.5863000000       14.2840000000       14.3227000000 H         0.0000000000         0.0000000000        -7.4295918052       99.4279349628       77.2223623404
atom        17.7510000000       14.9533000000       16.4297000000 H         0.0000000000         0.0000000000      -108.3585838406       -2.3495651552      -83.6423902986
atom        17.2016000000       14.9816000000       14.6229000000 H         0.0000000000         0.0000000000       -38.5918081139        1.5814781952      107.1387841700
atom        12.4024000000       15.0954000000       14.5394000000 H         0.0000000000         0.0000000000        93.5779592255       14.7507115176       83.8062994043
atom        14.4862000000       15.1721000000       15.0154000000 C         0.0000000000         0.0000000000       -52.8969538776      -44.7202213904        6.9742753836
atom        16.8943000000       14.9705000000       15.6716000000 C         0.0000000000         0.0000000000      -203.6451017950        8.1217514723       74.1334528813
atom        15.6523000000       14.9951000000       16.1043000000 N         0.0000000000         0.0000000000       169.3680224796       25.4959667893     -219.2468746232
atom        13.0753000000       15.2090000000       15.3926000000 N         0.0000000000         0.0000000000       164.4801709113      -18.3330511955     -112.0993426355
energy     -1515.5416655092
charge 0
end
begin
comment generated by PY
lattice        30.0000000000         0.0000000000         0.0000000000
lattice         0.0000000000        30.0000000000         0.0000000000
lattice         0.0000000000         0.0000000000        30.0000000000
atom        14.6994000000       16.1181000000       14.5377000000 H         0.0000000000         0.0000000000       -22.4534485851     -105.0944697576       62.4032937728
atom        14.5631000000       14.3167000000       14.2652000000 H         0.0000000000         0.0000000000         0.6312726260       96.6626548609       97.7517349988
atom        17.7535000000       14.6509000000       16.2816000000 H         0.0000000000         0.0000000000       -97.9191918407       38.5282763462      -42.8339480225
atom        17.2499000000       15.1483000000       14.6064000000 H         0.0000000000         0.0000000000       -45.6448423643      -19.1138361897      118.7169835276
atom        12.5112000000       14.3647000000       15.1271000000 H         0.0000000000         0.0000000000        71.4719838958       86.6834534944       18.7623699078
atom        14.4699000000       15.1618000000       15.0375000000 C         0.0000000000         0.0000000000       -64.0676247399        2.0450780468      -24.3833950977
atom        16.9236000000       14.9659000000       15.6902000000 C         0.0000000000         0.0000000000      -221.0661049719       -4.7110311732       14.7118422610
atom        15.6586000000       14.9937000000       16.1012000000 N         0.0000000000         0.0000000000       203.5397373914       -4.3299133674     -200.3823891870
atom        13.0477000000       15.2756000000       15.3246000000 N         0.0000000000         0.0000000000       175.5080724675      -90.6701191997      -44.7465321608
energy     -1505.7297356698
charge 0
end
begin
comment generated by PY
lattice        30.0000000000         0.0000000000         0.0000000000
lattice         0.0000000000        30.0000000000         0.0000000000
lattice         0.0000000000         0.0000000000        30.0000000000
atom        14.7199000000       15.6910000000       14.1768000000 H         0.0000000000         0.0000000000       -33.4283056121      -55.9654583133      111.6102491898
atom        14.7211000000       14.1503000000       14.5006000000 H         0.0000000000         0.0000000000       -38.4873203422       86.3439942207       79.4478627655
atom        17.8053000000       14.9987000000       16.3351000000 H         0.0000000000         0.0000000000      -112.3851147072      -13.9313042857      -65.6114783536
atom        17.0944000000       14.7700000000       14.6975000000 H         0.0000000000         0.0000000000       -20.0563932127      -10.5731263584       74.4893490554
atom        12.6378000000       14.6014000000       16.1083000000 H         0.0000000000         0.0000000000        53.0113662268       73.5109851551      -99.6454360418
atom        14.4419000000       15.0652000000       15.0740000000 C         0.0000000000         0.0000000000       -26.9582646881       27.0566877031      -84.6521571725
atom        16.9013000000       14.8654000000       15.6872000000 C         0.0000000000         0.0000000000      -197.9032699036      132.2771556442       78.3381226283
atom        15.7208000000       15.2454000000       16.1023000000 N         0.0000000000         0.0000000000       165.2794659160     -133.7189332642     -178.7802725336
atom        13.0143000000       15.2207000000       15.2234000000 N         0.0000000000         0.0000000000       210.9282363231     -104.9996245621       84.8035335229
energy     -1506.8489838360
charge 0
end
begin
comment generated by PY
lattice        30.0000000000         0.0000000000         0.0000000000
lattice         0.0000000000        30.0000000000         0.0000000000
lattice         0.0000000000         0.0000000000        30.0000000000
atom        14.7293000000       15.6968000000       14.1285000000 H         0.0000000000         0.0000000000       -29.1410484583      -60.2493480645      115.4062875599
atom        14.4846000000       14.0737000000       14.6100000000 H         0.0000000000         0.0000000000         4.1015098525       98.8781269710       54.9629929522
atom        17.7855000000       14.9666000000       16.2747000000 H         0.0000000000         0.0000000000       -98.8508032163        7.4884777142      -58.7016597215
atom        16.9816000000       14.4687000000       14.6793000000 H         0.0000000000         0.0000000000        -6.0780745830       62.4863076453      100.4378083685
atom        12.5891000000       14.5274000000       15.9639000000 H         0.0000000000         0.0000000000        70.4770257171       77.7363769974      -76.9956125490
atom        14.4497000000       15.0835000000       15.0213000000 C         0.0000000000         0.0000000000      -100.9714218432      -17.8348470433      -28.2384178753
atom        16.9056000000       14.9577000000       15.6592000000 C         0.0000000000         0.0000000000      -232.3637050130      -22.5465616010       80.3469301320
atom        15.7004000000       15.1757000000       16.1715000000 N         0.0000000000         0.0000000000       200.7950558410      -54.2789262384     -227.4064699215
atom        13.0534000000       15.2297000000       15.2350000000 N         0.0000000000         0.0000000000       192.0315086426      -91.6795863808       40.1889779942
energy     -1508.7042460557
charge 0
end
begin
comment generated by PY
lattice        30.0000000000         0.0000000000         0.0000000000
lattice         0.0000000000        30.0000000000         0.0000000000
lattice         0.0000000000         0.0000000000        30.0000000000
atom        14.8551000000       15.6676000000       14.1430000000 H         0.0000000000         0.0000000000       -44.3647385602      -67.9762106922      109.0754722116
atom        14.7012000000       13.9899000000       14.5740000000 H         0.0000000000         0.0000000000       -22.7710413734      107.8848979294       59.7372900348
atom        17.6031000000       15.1339000000       16.4722000000 H         0.0000000000         0.0000000000       -86.6734015123      -24.4890810254      -91.8001383375
atom        17.1760000000       14.5091000000       14.7047000000 H         0.0000000000         0.0000000000       -44.1704909005       47.9427676295      106.2447314172
atom        12.5691000000       14.3890000000       15.6437000000 H         0.0000000000         0.0000000000        61.4071413457       81.0640700114      -30.0075849430
atom        14.5480000000       14.9971000000       15.0029000000 C         0.0000000000         0.0000000000        -7.8272849331       15.9028747535        8.7887891309
atom        16.8380000000       14.9313000000       15.6858000000 C         0.0000000000         0.0000000000      -187.6354218604       50.0212704026       85.7301240404
atom        15.6468000000       15.2125000000       16.0607000000 N         0.0000000000         0.0000000000       164.0108527062      -97.2133522812     -227.9004810433
atom        13.0568000000       15.2928000000       15.3472000000 N         0.0000000000         0.0000000000       168.0246850880     -113.1375836672      -19.8684794506
energy     -1517.7214538518
charge 0
end
begin
comment generated by PY
lattice        30.0000000000         0.0000000000         0.0000000000
lattice         0.0000000000        30.0000000000         0.0000000000
lattice         0.0000000000         0.0000000000        30.0000000000
atom        14.7270000000       15.3900000000       13.9307000000 H         0.0000000000         0.0000000000       -25.6927084932      -30.7065070876      126.3179098950
atom        14.5023000000       13.8834000000       14.5759000000 H         0.0000000000         0.0000000000         2.1482566447      104.9336926787       59.7437339633
atom        17.6988000000       15.1891000000       16.3537000000 H         0.0000000000         0.0000000000       -96.3870492575      -27.6788944027      -46.0429669599
atom        17.1498000000       15.1205000000       14.7200000000 H         0.0000000000         0.0000000000       -30.6922835800      -29.5616885644       85.8505505527
atom        12.4687000000       14.7410000000       15.7243000000 H         0.0000000000         0.0000000000        38.0191542901       -7.4314259272      -14.6509508121
atom        14.4790000000       14.9191000000       14.9276000000 C         0.0000000000         0.0000000000       -80.0915070465       -1.0352792811       31.4013742290
atom        16.8756000000       14.9911000000       15.7177000000 C         0.0000000000         0.0000000000      -226.0257715866      107.6609038185       29.1523180293
atom        15.6016000000       15.1448000000       16.0796000000 N         0.0000000000         0.0000000000       213.6385656211      -77.8546146111     -199.5203957832
atom        13.1545000000       15.3308000000       15.3822000000 N         0.0000000000         0.0000000000       205.0830334079      -38.3264766231      -72.2515731141
energy     -1516.8077447624
charge 0
end
begin
comment generated by PY
lattice        30.0000000000         0.0000000000         0.0000000000
lattice         0.0000000000        30.0000000000         0.0000000000
lattice         0.0000000000         0.0000000000        30.0000000000
atom        14.7023000000       15.5952000000       14.2353000000 H         0.0000000000         0.0000000000       -17.8556114186      -75.1277231338       66.2371755875
atom        14.3728000000       13.8308000000       14.5150000000 H         0.0000000000         0.0000000000        18.0433021205      120.1996691085       58.6512148866
atom        17.6625000000       14.7782000000       16.3667000000 H         0.0000000000         0.0000000000       -94.3782418969       60.9764378729      -50.2225759413
atom        17.1666000000       15.5156000000       14.7390000000 H         0.0000000000         0.0000000000       -34.7469923906      -26.8957676218      109.7039604543
atom        13.2114000000       16.2330000000       15.7732000000 H         0.0000000000         0.0000000000         5.9672278297      -47.6369343757      -20.0421406033
atom        14.4697000000       14.8499000000       14.9490000000 C         0.0000000000         0.0000000000       -61.7339116361       69.6568501268       72.7429278794
atom        16.8608000000       15.2060000000       15.7599000000 C         0.0000000000         0.0000000000      -210.4140473195     -111.4544223654      -15.9561557023
atom        15.6343000000       14.9010000000       16.0229000000 N         0.0000000000         0.0000000000       178.5057125006       50.0194790344     -174.1668372624
atom        13.1019000000       15.3332000000       15.3612000000 N         0.0000000000         0.0000000000       216.6131022109      -39.7372655855      -46.9476023592
energy     -1533.1745903760
charge 0
end
begin
comment generated by PY
lattice        30.0000000000         0.0000000000         0.0000000000
lattice         0.0000000000        30.0000000000         0.0000000000
lattice         0.0000000000         0.0000000000        30.0000000000
atom        14.7028000000       15.7553000000       14.1209000000 H         0.0000000000         0.0000000000       -32.0553292236      -50.9263628647       99.9593712734
atom        14.7270000000       14.2074000000       14.4682000000 H         0.0000000000         0.0000000000       -27.7966611948       82.8658138188       64.7903599367
atom        17.7918000000       14.8380000000       16.3755000000 H         0.0000000000         0.0000000000      -118.0750438621       -3.9310435619      -73.0938857159
atom        16.9933000000       14.5106000000       14.6513000000 H         0.0000000000         0.0000000000       -18.1773219497       15.4498853483      116.7605496159
atom        12.6262000000       14.7361000000       16.2084000000 H         0.0000000000         0.0000000000        72.8795562567       37.9404218599      -82.7422847223
atom        14.4931000000       15.1271000000       14.9662000000 C         0.0000000000         0.0000000000       -56.0980006041       -7.5199079788       34.3204331976
atom        16.8508000000       14.7772000000       15.7102000000 C         0.0000000000         0.0000000000      -181.3521511435      146.8701625389       38.1945288147
atom        15.6858000000       15.3611000000       16.0847000000 N         0.0000000000         0.0000000000       170.6375979459     -189.7505823355     -199.1030882059
atom        13.0585000000       15.1393000000       15.3132000000 N         0.0000000000         0.0000000000       190.0370076540      -30.9978668250        0.9144158057
energy     -1491.4038369337
charge 0
end
begin
comment generated by PY
lattice        30.0000000000         0.0000000000         0.0000000000
lattice         0.0000000000        30.0000000000         0.0000000000
lattice         0.0000000000         0.0000000000        30.0000000000
atom        14.7327000000       16.2898000000       14.4720000000 H         0.0000000000         0.0000000000       -27.7602834573     -110.7601258710       71.8838306574
atom        14.7435000000       14.6927000000       14.1396000000 H         0.0000000000         0.0000000000       -21.4207517687       45.8967532123       90.7543844983
atom        17.7080000000       14.7042000000       16.2995000000 H         0.0000000000         0.0000000000      -106.1664396097       23.8416137107      -44.9794581009
atom        17.1302000000       14.6909000000       14.6577000000 H         0.0000000000         0.0000000000       -42.4768070482       25.3703323891       98.1333174799
atom        13.0054000000       14.8740000000       16.3575000000 H         0.0000000000         0.0000000000        14.3586070023       29.8037183148     -116.6366305371
atom        14.5356000000       15.2645000000       15.0115000000 C         0.0000000000         0.0000000000       -26.9616497057       13.2819011645       24.4657175884
atom        16.8405000000       14.8683000000       15.6852000000 C         0.0000000000         0.0000000000      -199.3405117531        5.0537513113       35.8051545989
atom        15.6068000000       15.0794000000       16.0877000000 N         0.0000000000         0.0000000000       172.5552476560      -25.0392051544     -233.5123226069
atom        13.0757000000       15.1389000000       15.2857000000 N         0.0000000000         0.0000000000       237.2131117448       -7.4486870774       74.0860452219
energy     -1530.7074305179
charge 0
end
begin
comment generated by PY
lattice        30.0000000000         0.0000000000         0.0000000000
lattice         0.0000000000        30.0000000000         0.0000000000
lattice         0.0000000000         0.0000000000        30.0000000000
atom        14.7708000000       16.0609000000       14.3000000000 H         0.0000000000         0.0000000000       -38.9367894662     -104.5458893137       76.8714361480
atom        14.6269000000       14.2597000000       14.3033000000 H         0.0000000000         0.0000000000       -23.1560050266       97.5533910898       72.3025946658
atom        17.6465000000       14.8823000000       16.4620000000 H         0.0000000000         0.0000000000       -75.4214506521        8.8033814554      -58.6908153982
atom        17.2375000000       15.1583000000       14.7361000000 H         0.0000000000         0.0000000000       -32.1272755025      -12.0130649210       97.4304183349
atom        12.8007000000       14.7869000000       16.2173000000 H         0.0000000000         0.0000000000        41.5399296722       36.7855035607      -72.3697665430
atom        14.4740000000       15.1645000000       14.9429000000 C         0.0000000000         0.0000000000       -30.4515481765       -5.3002736454       47.8166209987
atom        16.9221000000       15.0030000000       15.7377000000 C         0.0000000000         0.0000000000      -258.6633663364      -16.7308675617       15.6690382836
atom        15.6157000000       14.9147000000       16.0394000000 N         0.0000000000         0.0000000000       203.6539232225       49.0930565073     -172.8840115758
atom        13.0665000000       15.2812000000       15.3411000000 N         0.0000000000         0.0000000000       213.5618822656      -53.6453602318       -6.1451379746
energy     -1521.8113259921
charge 0
end
begin
comment generated by PY
lattice        30.0000000000         0.0000000000         0.0000000000
lattice         0.0000000000        30.0000000000         0.0000000000
lattice         0.0000000000         0.0000000000        30.0000000000
atom        15.0330000000       15.6188000000       14.2115000000 H         0.0000000000         0.0000000000       -72.7952596328      -68.4039741849       89.0671882252
atom        14.3960000000       13.9086000000       14.4087000000 H         0.0000000000         0.0000000000        11.7106635408      116.7368014325       76.3448433371
atom        17.6890000000       15.1448000000       16.3810000000 H         0.0000000000         0.0000000000      -106.7342533890       -9.6570538422      -61.3460676679
atom        17.1047000000       15.7338000000       14.8265000000 H         0.0000000000         0.0000000000       -44.6699806344      -61.8488416457       79.9190694000
atom        12.6178000000       14.6802000000       15.9842000000 H         0.0000000000         0.0000000000        73.1681082739       87.2794468965      -72.2427035640
atom        14.5170000000       14.9535000000       14.9754000000 C         0.0000000000         0.0000000000         0.7702856012       16.0851117425       20.5222079992
atom        16.8270000000       15.1765000000       15.7085000000 C         0.0000000000         0.0000000000      -198.2764400897      -35.3507956770       60.4245765295
atom        15.6036000000       14.7626000000       16.0422000000 N         0.0000000000         0.0000000000       184.4799858660      117.3868833174     -204.2120091962
atom        13.1406000000       15.4699000000       15.3503000000 N         0.0000000000         0.0000000000       152.3466274036     -162.2273880391       11.5226749371
energy     -1496.7222301118
charge 0
end
begin
comment generated by PY
lattice        30.0000000000         0.0000000000         0.0000000000
lattice         0.0000000000        30.0000000000         0.0000000000
lattice         0.0000000000         0.0000000000        30.0000000000
atom        14.8836000000       16.0166000000       14.6129000000 H         0.0000000000         0.0000000000       -34.1448985631      -97.9637471782       46.2852760843
atom        14.6725000000       14.2910000000       14.1165000000 H         0.0000000000         0.0000000000       -15.8016350640       86.1702907253      120.9778170213
atom        17.6892000000       14.7840000000       16.2291000000 H         0.0000000000         0.0000000000      -109.4216408308       48.5077211935      -62.2382248374
atom        16.9148000000       15.6116000000       14.6430000000 H         0.0000000000         0.0000000000       -19.0455995007      -49.1388570609      116.0276544417
atom        12.7571000000       16.1420000000       15.9956000000 H         0.0000000000         0.0000000000        69.3995113791     -104.8461699482      -77.6300159767
atom        14.5716000000       15.0664000000       15.0368000000 C         0.0000000000         0.0000000000       -55.5272936510       28.3839496720       22.3927942757
atom        16.7706000000       15.1425000000       15.6600000000 C         0.0000000000         0.0000000000      -168.5891481396     -105.0897803993       69.2677596868
atom        15.6208000000       14.7572000000       16.1105000000 N         0.0000000000         0.0000000000       161.0028185855      143.0305668648     -262.1399637667
atom        13.1195000000       15.2819000000       15.2863000000 N         0.0000000000         0.0000000000       172.1277957846       50.9464491916       27.0564830709
energy     -1503.6755850412
charge 0
end
begin
comment generated by PY
lattice        30.0000000000         0.0000000000         0.0000000000
lattice         0.0000000000        30.0000000000         0.0000000000
lattice         0.0000000000         0.0000000000        30.0000000000
atom        14.7505000000       16.1894000000       14.5378000000 H         0.0000000000         0.0000000000       -21.3665614389     -105.9225685949       58.5109159027
atom        14.8079000000       14.5824000000       14.0086000000 H         0.0000000000         0.0000000000       -39.0237083777       49.1196229651      123.7793429635
atom        17.6167000000       14.9413000000       16.3925000000 H         0.0000000000         0.0000000000       -81.7697522046      -10.5102853381      -62.8180873252
atom        17.0532000000       15.1190000000       14.6573000000 H         0.0000000000         0.0000000000       -18.9745407731      -30.0243996164      106.0057247166
atom        12.5333000000       15.9855000000       15.9134000000 H         0.0000000000         0.0000000000       101.5317564161      -92.4615693477      -62.8336224941
atom        14.5586000000       15.1729000000       14.9516000000 C         0.0000000000         0.0000000000       -36.6317405040       59.3370272875       49.6020948130
atom        16.8374000000       14.9185000000       15.6956000000 C         0.0000000000         0.0000000000      -235.0133591921       69.2251495397       45.2317322160
atom        15.5976000000       15.0018000000       16.0956000000 N         0.0000000000         0.0000000000       193.7847245235       -6.0733117371     -235.2255122495
atom        13.1077000000       15.1401000000       15.3500000000 N         0.0000000000         0.0000000000       137.4628584902       67.3104179025      -22.2532885430
energy     -1507.1817335007
charge 0
end
begin
comment generated by PY
lattice        30.0000000000         0.0000000000         0.0000000000
lattice         0.0000000000        30.0000000000         0.0000000000
lattice         0.0000000000         0.0000000000        30.0000000000
atom        14.6042000000       16.3574000000       14.6039000000 H         0.0000000000         0.0000000000        -5.4925234625     -123.9848395606       40.4292172704
atom        14.6659000000       14.6889000000       13.9600000000 H         0.0000000000         0.0000000000       -16.0176786134       52.1020014701      114.4494148735
atom        17.5934000000       14.7095000000       16.4613000000 H         0.0000000000         0.0000000000       -85.2743477417       28.3005477741      -60.0016618610
atom        17.1298000000       14.5593000000       14.7893000000 H         0.0000000000         0.0000000000       -29.1730677714       47.4781662265       80.6533083350
atom        12.7327000000       15.8018000000       16.1036000000 H         0.0000000000         0.0000000000        72.1996407540      -73.5946816632      -78.9701469316
atom        14.5066000000       15.2580000000       14.8881000000 C         0.0000000000         0.0000000000       -81.7106504132       29.3336419457       78.9498358565
atom        16.8418000000       14.8955000000       15.7408000000 C         0.0000000000         0.0000000000      -224.6232033504      -46.6514016524       39.7134847068
atom        15.6051000000       15.0521000000       16.0616000000 N         0.0000000000         0.0000000000       205.7195033117        3.7939744125     -192.0082121398
atom        13.1436000000       15.0866000000       15.3705000000 N         0.0000000000         0.0000000000       164.3728042263       83.2230591077      -23.2164170492
energy     -1529.7629039318
charge 0
end
begin
comment generated by PY
lattice        30.0000000000         0.0000000000         0.0000000000
lattice         0.0000000000        30.0000000000         0.0000000000
lattice         0.0000000000         0.0000000000        30.0000000000
atom        14.6907000000       16.3185000000       14.5627000000 H         0.0000000000         0.0000000000       -16.4222442755     -124.2892871312       45.1447651769
atom        14.5509000000       14.4003000000       14.2199000000 H         0.0000000000         0.0000000000        15.0073230798      112.7985962822       78.3969358577
atom        17.6660000000       15.0557000000       16.5338000000 H         0.0000000000         0.0000000000      -102.8253465417      -37.0230644510      -85.7942363263
atom        17.1671000000       14.7382000000       14.6467000000 H         0.0000000000         0.0000000000       -31.5389516949        8.5481148062      124.1841407910
atom        12.7413000000       15.6868000000       16.1005000000 H         0.0000000000         0.0000000000        44.9983608299      -38.7172237387      -53.8654545172
atom        14.5452000000       15.2655000000       14.9615000000 C         0.0000000000         0.0000000000       -56.1870194606      -64.6697571703       63.5480827787
atom        16.8479000000       14.8470000000       15.7506000000 C         0.0000000000         0.0000000000      -207.9282599606       89.4503454653        3.4089202483
atom        15.6149000000       15.0749000000       16.0175000000 N         0.0000000000         0.0000000000       175.0021215764      -14.7361815009     -175.0910157199
atom        13.0889000000       15.0931000000       15.3329000000 N         0.0000000000         0.0000000000       179.8938995076       68.6389343780        0.0680617106
energy     -1517.2570173606
charge 0
end
begin
comment generated by PY
lattice        30.0000000000         0.0000000000         0.0000000000
lattice         0.0000000000        30.0000000000         0.0000000000
lattice         0.0000000000         0.0000000000        30.0000000000
atom        14.8097000000       16.1329000000       14.4367000000 H         0.0000000000         0.0000000000       -36.1923361392     -106.7811360477       68.0431431874
atom        14.8139000000       14.2386000000       14.4022000000 H         0.0000000000         0.0000000000       -48.0309067409      118.3223347463       58.1127304497
atom        17.6376000000       14.8602000000       16.3632000000 H         0.0000000000         0.0000000000       -86.0546237627       12.0257409596      -69.8547717026