begin
comment generated by PY
lattice        30.0000000000         0.0000000000         0.0000000000
lattice         0.0000000000        30.0000000000         0.0000000000
lattice         0.0000000000         0.0000000000        30.0000000000
atom        12.9795700000       14.7311000000       15.6105400000 H         0.0000000000         0.0000000000         8.4185732251        6.3225035814     -124.6997101299
atom        12.1537400000       15.0226100000       14.0520600000 H         0.0000000000         0.0000000000       113.1465960812      -34.2491951604       44.2505571255
atom        16.2111700000       16.1974200000       14.3556200000 H         0.0000000000         0.0000000000       -98.2696560600      -96.5633370236       49.3339584756
atom        15.4090200000       15.5289100000       15.8933200000 H         0.0000000000         0.0000000000         4.6641253651       -3.3689236488     -134.6398581265
atom        14.5902300000       13.2509300000       15.8252400000 H         0.0000000000         0.0000000000        22.0671161615      -15.3047168059     -106.5710557720
atom        14.9928200000       12.0919700000       14.5737500000 H         0.0000000000         0.0000000000       -20.6643975465      128.1716958925       15.6074558830
atom        13.0945800000       14.7110200000       14.4635200000 C         0.0000000000         0.0000000000        77.7044969548      -45.9625927971       53.4035916507
atom        15.4561600000       15.4925400000       14.7589400000 C         0.0000000000         0.0000000000       -94.9588246257      -86.0286154102      -67.3104001549
atom        14.7141200000       13.1206500000       14.7582100000 C         0.0000000000         0.0000000000       -69.6035160873       88.7072014366      -18.3141119601
atom        12.4756400000       17.3148000000       14.6727700000 O         0.0000000000         0.0000000000       317.3116868774      -59.9249910647      -38.8013013971
atom        17.8591100000       14.7800300000       14.5030500000 O         0.0000000000         0.0000000000      -194.1208610525     -239.9653280175       32.6797919193
atom        14.6936600000       17.8367600000       14.7279300000 O         0.0000000000         0.0000000000      -248.7980412369     -176.0179002565      -45.5106576623
atom        17.4476400000       12.5998800000       14.6204500000 O         0.0000000000         0.0000000000      -108.5578219970      301.5718095308        0.4684724258
atom        14.1391000000       15.7528100000       14.2111400000 N         0.0000000000         0.0000000000         1.2308038913      -41.6103383525      141.4343670263
atom        13.3914600000       13.3563000000       14.3821600000 N         0.0000000000         0.0000000000       174.0901452091      204.8609276447       55.5132015343
atom        15.6794500000       14.1384400000       14.3111200000 N         0.0000000000         0.0000000000       -15.1092800600       16.2102070968      156.3394558183
atom        13.7263800000       17.0801800000       14.5456800000 N         0.0000000000         0.0000000000       -11.9637810753       73.9060402313       53.8279362204
atom        17.0843800000       13.8052500000       14.5900900000 N         0.0000000000         0.0000000000       143.3513983399      -20.7365965557      -66.9996969073
energy     -3664.3345513806
charge 0
end
begin
comment generated by PY
lattice        30.0000000000         0.0000000000         0.0000000000
lattice         0.0000000000        30.0000000000         0.0000000000
lattice         0.0000000000         0.0000000000        30.0000000000
atom        12.3383800000       15.1087200000       15.1980600000 H         0.0000000000         0.0000000000        80.5015453771      -47.0697046094      -93.0525274797
atom        12.3390200000       14.8395700000       13.4048200000 H         0.0000000000         0.0000000000        79.2036895020      -14.6108849449      118.0317597479
atom        16.1916300000       16.0890600000       14.3918000000 H         0.0000000000         0.0000000000       -99.1652134464      -73.9234804653       43.9366179575
atom        15.3767400000       15.6550600000       15.8903200000 H         0.0000000000         0.0000000000        -3.0528537455      -26.6952609121     -126.9269633848
atom        14.7572900000       13.0329500000       16.0821600000 H         0.0000000000         0.0000000000       -21.6963665694       16.0195388534     -129.1663785448
atom        15.1626900000       12.1292500000       14.6054700000 H         0.0000000000         0.0000000000       -72.9764964462      111.4583755530       38.4599839816
atom        13.0087800000       14.7066700000       14.3585300000 C         0.0000000000         0.0000000000        45.5586140733      -27.2534589588      -54.9663848018
atom        15.4080400000       15.4755800000       14.7971300000 C         0.0000000000         0.0000000000       -42.1059088522      -90.0970483615      -83.4077813983
atom        14.6494500000       13.0900900000       14.9452700000 C         0.0000000000         0.0000000000        36.6513805248       28.8798225818      -82.5545160687
atom        12.5918700000       17.3340300000       14.7231800000 O         0.0000000000         0.0000000000       253.7081728108      -80.5476928095      -36.3952387934
atom        17.8498300000       14.8055700000       14.5237900000 O         0.0000000000         0.0000000000      -171.2993605623     -229.6229372487      -23.3699155012
atom        14.6575400000       17.8833300000       14.6842000000 O         0.0000000000         0.0000000000      -198.3129591745     -208.3387989676      -26.4477362763
atom        17.5120300000       12.6585800000       14.5574700000 O         0.0000000000         0.0000000000      -102.8789309449      268.8535558123      -31.0544581004
atom        14.1096000000       15.7338100000       14.1399200000 N         0.0000000000         0.0000000000        22.4863083839      -36.1274562683      179.7070393137
atom        13.3286100000       13.3152600000       14.4119100000 N         0.0000000000         0.0000000000       174.1533543520      209.3078980576       99.7375338563
atom        15.7197900000       14.0752800000       14.4320700000 N         0.0000000000         0.0000000000       -53.6498525513       82.7572152243      124.1444598459
atom        13.7559500000       17.0620700000       14.5753400000 N         0.0000000000         0.0000000000       -28.0310218176      130.4760654811       16.6256145298
atom        17.1348700000       13.8173500000       14.4711200000 N         0.0000000000         0.0000000000       100.9495247652      -13.4518561730       66.7061778241
energy     -3634.5826779696
charge 0
end
begin
comment generated by PY
lattice        30.0000000000         0.0000000000         0.0000000000
lattice         0.0000000000        30.0000000000         0.0000000000
lattice         0.0000000000         0.0000000000        30.0000000000
atom        12.0817100000       15.0442700000       14.7678000000 H         0.0000000000         0.0000000000       100.9818055610      -29.4816652326      -67.7889998515
atom        12.5367800000       14.6664000000       13.1264800000 H         0.0000000000         0.0000000000        48.3471755578        8.4757045881      109.6228553470
atom        16.0612600000       16.0778500000       14.3091000000 H         0.0000000000         0.0000000000       -83.9548071225     -103.7559553271       58.9961559954
atom        15.3384900000       15.5366500000       15.8413200000 H         0.0000000000         0.0000000000        -4.8725764219      -15.9493117772     -123.2909930075
atom        14.5743800000       13.0946900000       16.1422000000 H         0.0000000000         0.0000000000        30.4570448804      -10.9435452133     -130.9970396771
atom        14.8347100000       12.0186600000       14.6798600000 H         0.0000000000         0.0000000000        11.3372016418      112.8862311872       29.2833850272
atom        12.9264600000       14.7380500000       14.1355800000 C         0.0000000000         0.0000000000       128.0071597532      -47.2664078583       63.3268817016
atom        15.3513700000       15.3410900000       14.7589900000 C         0.0000000000         0.0000000000       -35.2230592615      -21.1054191964      -16.6048753440
atom        14.7747100000       13.0249100000       14.9870400000 C         0.0000000000         0.0000000000       -94.2847283277      151.8923421505      -24.7042803315
atom        12.5526600000       17.3057300000       14.7685700000 O         0.0000000000         0.0000000000       288.9690246833      -50.1691459445      -64.3125678471
atom        17.8713100000       14.8577700000       14.4993300000 O         0.0000000000         0.0000000000      -189.4714377790     -254.4529026032       -2.1154428153
atom        14.7132300000       17.9265900000       14.6431600000 O         0.0000000000         0.0000000000      -234.0461772295     -218.4885489364      -27.3443235372
atom        17.5077900000       12.6504500000       14.4487700000 O         0.0000000000         0.0000000000       -98.1823451398      285.4758093966       13.8294404527
atom        14.0529100000       15.7422000000       14.2064600000 N         0.0000000000         0.0000000000         4.4020372398      -50.4173422653       90.1097273286
atom        13.3906700000       13.4295800000       14.5573000000 N         0.0000000000         0.0000000000       107.3120552892      132.9782543584       -9.9336621361
atom        15.7426000000       14.0293900000       14.6088500000 N         0.0000000000         0.0000000000       -63.3755715409       38.2042087379       40.1072608179
atom        13.7550300000       17.0844600000       14.5415900000 N         0.0000000000         0.0000000000       -29.0406291466       86.4673190928       55.4954890169
atom        17.1335700000       13.8247700000       14.5019300000 N         0.0000000000         0.0000000000       112.6639598741      -14.3919796886        6.3498938184
energy     -3635.3356102169
charge 0
end
begin
comment generated by PY
lattice        30.0000000000         0.0000000000         0.0000000000
lattice         0.0000000000        30.0000000000         0.0000000000
lattice         0.0000000000         0.0000000000        30.0000000000
atom        12.1038600000       15.0280600000       14.3107600000 H         0.0000000000         0.0000000000       121.7821439374      -38.6991807688      -27.6884952336
atom        13.0265600000       14.4931300000       12.9662600000 H         0.0000000000         0.0000000000        16.0295484026       14.9231335490      115.7100039037
atom        16.1315600000       15.9421400000       14.3672300000 H         0.0000000000         0.0000000000       -95.0396432577      -53.3608124162       56.8058013414
atom        15.2412800000       15.7573800000       15.9331300000 H         0.0000000000         0.0000000000        12.0881087948      -45.1069495171     -131.4081921612
atom        14.8531600000       12.7553700000       16.0299900000 H         0.0000000000         0.0000000000       -28.5779077437       41.1962073924     -109.4986747643
atom        15.0602100000       12.1458200000       14.4812000000 H         0.0000000000         0.0000000000       -53.6886689520      103.0414510476       51.8522330586
atom        13.1220600000       14.6766300000       14.0400400000 C         0.0000000000         0.0000000000        58.0029137855        2.6360277938       79.9371988869
atom        15.3273500000       15.4308600000       14.8362000000 C         0.0000000000         0.0000000000       -22.6117583426      -55.3883494535      -39.4115525446
atom        14.6817000000       13.0879900000       14.9978600000 C         0.0000000000         0.0000000000        25.8093998957       67.4651461932      -53.0280924544
atom        12.5075000000       17.3265500000       14.7753200000 O         0.0000000000         0.0000000000       288.4203303402      -47.2675323893      -62.8377006505
atom        17.8399300000       14.8264000000       14.4520100000 O         0.0000000000         0.0000000000      -164.5440900385     -251.7942369329       44.2903053950
atom        14.6747700000       17.8376600000       14.5764400000 O         0.0000000000         0.0000000000      -234.6546938615     -170.7183080718       -1.6888132530
atom        17.5006800000       12.6324000000       14.3250800000 O         0.0000000000         0.0000000000       -88.5364527205      274.6003437871       78.9743298802
atom        14.0196300000       15.7645400000       14.2290100000 N         0.0000000000         0.0000000000        58.1805433014      -80.9984953156       79.8534551487
atom        13.4375900000       13.5219600000       14.7193900000 N         0.0000000000         0.0000000000       164.8057277285       99.5136383206      -61.4027389868
atom        15.7566900000       14.0094200000       14.6724300000 N         0.0000000000         0.0000000000      -101.1475375757       90.6532363262       65.3465798570
atom        13.7107400000       17.0981500000       14.5432300000 N         0.0000000000         0.0000000000       -31.5238770670       48.9230043672       31.9599776349
atom        17.1516200000       13.7948200000       14.5780600000 N         0.0000000000         0.0000000000        75.2129196880        0.3590432647     -117.7259676420
energy     -3699.2027693594
charge 0
end
begin
comment generated by PY
lattice        30.0000000000         0.0000000000         0.0000000000
lattice         0.0000000000        30.0000000000         0.0000000000
lattice         0.0000000000         0.0000000000        30.0000000000
atom        12.1689200000       15.0292100000       13.9470000000 H         0.0000000000         0.0000000000       132.8643137152      -40.9635841693        8.4229340938
atom        13.5904800000       14.1836000000       12.9858100000 H         0.0000000000         0.0000000000       -46.5193095198       55.8559936806      115.4231508543
atom        16.2321100000       16.2504800000       14.5336400000 H         0.0000000000         0.0000000000       -98.7840263158     -102.9099769178       43.9524817271
atom        15.3565300000       15.7305200000       16.0077500000 H         0.0000000000         0.0000000000        -0.2097386278      -17.0589602200     -125.9949560754
atom        14.8115100000       12.6093800000       15.9764800000 H         0.0000000000         0.0000000000         6.2338281283       47.9211292724     -108.4254679370
atom        14.8264100000       12.2394800000       14.1731400000 H         0.0000000000         0.0000000000         4.3661949306       97.8379953926       98.6974413727
atom        13.2174300000       14.6445300000       13.9983800000 C         0.0000000000         0.0000000000        93.1088014496      -38.6208100234       54.7787452589
atom        15.4458200000       15.5496500000       14.9269900000 C         0.0000000000         0.0000000000       -65.5044343771      -91.7652147562      -55.7400208709
atom        14.7624900000       13.0444300000       14.9946700000 C         0.0000000000         0.0000000000       -85.1429777081      106.8371697547      -51.0585950044
atom        12.4652500000       17.3723900000       14.7390400000 O         0.0000000000         0.0000000000       285.0516827621     -117.7147177052      -58.5392671549
atom        17.8446100000       14.7484700000       14.4747200000 O         0.0000000000         0.0000000000      -172.6372269089     -210.3443490979      -20.9936062410
atom        14.5938800000       17.8305200000       14.5533300000 O         0.0000000000         0.0000000000      -217.0216920568     -179.7625894461        6.6778875440
atom        17.4578800000       12.6165500000       14.3093100000 O         0.0000000000         0.0000000000      -116.7849535114      286.6523330002       24.0394425798
atom        14.1703000000       15.7650100000       14.2183600000 N         0.0000000000         0.0000000000       -37.0011838961      -52.9112216817      105.0479941696
atom        13.3385100000       13.4629400000       14.8861300000 N         0.0000000000         0.0000000000       196.7530289568      124.8690601198     -115.4720767371
atom        15.7107000000       14.1582900000       14.7258000000 N         0.0000000000         0.0000000000       -25.7245442213       -5.5401389861       21.2315443422
atom        13.6527900000       17.0257700000       14.5394800000 N         0.0000000000         0.0000000000        17.5855262551      155.3041742585       18.2356219743
atom        17.0948300000       13.8084700000       14.4260700000 N         0.0000000000         0.0000000000       129.2981582702      -17.6385890488       39.7555700337
energy     -3620.3899720425
charge 0
end
begin
comment generated by PY
lattice        30.0000000000         0.0000000000         0.0000000000
lattice         0.0000000000        30.0000000000         0.0000000000
lattice         0.0000000000         0.0000000000        30.0000000000
atom        12.3802000000       14.9170500000       13.8531300000 H         0.0000000000         0.0000000000       112.5567972715      -43.9086955135       22.4730157864
atom        13.6905000000       14.0961200000       12.9849000000 H         0.0000000000         0.0000000000       -27.4120710246       47.7034765832      125.7915135016
atom        16.3030700000       16.0881900000       14.5768900000 H         0.0000000000         0.0000000000       -97.8549048562      -64.4828751600       47.2394102707
atom        15.3366800000       15.8011500000       16.0487500000 H         0.0000000000         0.0000000000        14.5353848224      -36.6191040950     -120.7717339925
atom        15.1604500000       12.5203800000       15.8627300000 H         0.0000000000         0.0000000000       -62.5808475967       71.7629174464     -103.0889708761
atom        14.9639300000       12.3733000000       14.1708300000 H         0.0000000000         0.0000000000       -31.5530843385       82.9738912540       81.0523364681
atom        13.3689200000       14.5120900000       14.0072300000 C         0.0000000000         0.0000000000         5.2150488756       30.9094461091       53.8420227357
atom        15.4789600000       15.5444200000       14.9953500000 C         0.0000000000         0.0000000000       -59.4477110460      -96.1790841112      -89.2234498736
atom        14.7037600000       13.1119300000       14.9577500000 C         0.0000000000         0.0000000000        30.2068386901       37.4175885357       17.7961202374
atom        12.4431400000       17.2365400000       14.6326500000 O         0.0000000000         0.0000000000       290.1244223624      -44.4827975409      -37.3910693574
atom        17.9407200000       14.7382600000       14.4556600000 O         0.0000000000         0.0000000000      -228.2767302743     -214.2005153314      -25.2009087423
atom        14.5409900000       17.9746000000       14.5915300000 O         0.0000000000         0.0000000000      -218.9983983158     -224.9690147895      -15.7470068178
atom        17.2455500000       12.6025100000       14.2743700000 O         0.0000000000         0.0000000000       -55.7254672901      292.9452933135       15.8468088991
atom        14.1952800000       15.7578600000       14.2538800000 N         0.0000000000         0.0000000000        30.1189316525      -60.5954566249       92.3539931082
atom        13.3803100000       13.4856300000       15.0144500000 N         0.0000000000         0.0000000000       260.7184181294      109.8549192643     -183.4502778505
atom        15.7651700000       14.1561400000       14.7359000000 N         0.0000000000         0.0000000000       -62.3910036558       65.4352197821       26.7610807308
atom        13.6406200000       17.0828300000       14.5157900000 N         0.0000000000         0.0000000000       -11.9755614906       98.8722446782       30.9695518548
atom        17.0356500000       13.8341400000       14.3899200000 N         0.0000000000         0.0000000000       112.7358557291      -52.4162462794       60.7403532977
energy     -3639.2099505931
charge 0
end
begin
comment generated by PY
lattice        30.0000000000         0.0000000000         0.0000000000
lattice         0.0000000000        30.0000000000         0.0000000000
lattice         0.0000000000         0.0000000000        30.0000000000
atom        12.2698100000       14.8698400000       13.8423300000 H         0.0000000000         0.0000000000       134.7924173144      -25.8709952735       31.3608879613
atom        13.7649200000       14.2466600000       13.1133200000 H         0.0000000000         0.0000000000       -40.8521672640       33.8611717939       90.9362152594
atom        16.2286300000       16.2164400000       14.6151900000 H         0.0000000000         0.0000000000       -98.7723085719      -89.4490682731       46.1094539331
atom        15.2859800000       15.6919900000       16.1108800000 H         0.0000000000         0.0000000000        11.2419576041      -13.8515218915     -135.2083599549
atom        15.0286700000       12.4730300000       15.9382300000 H         0.0000000000         0.0000000000        -8.7930798756       72.4131303024      -97.6823158824
atom        14.8435100000       12.3676800000       14.1797200000 H         0.0000000000         0.0000000000        11.0295419157       79.1000095916       95.6685106604
atom        13.3317700000       14.5952600000       14.0087900000 C         0.0000000000         0.0000000000        89.9459096442       -8.8358159054       96.4881991355
atom        15.4143600000       15.5524000000       14.9900700000 C         0.0000000000         0.0000000000       -43.4059045088      -79.2632107253      -42.8979967726
atom        14.8742200000       13.0517300000       15.0473000000 C         0.0000000000         0.0000000000       -82.9271846081      155.1917209736      -65.8851613774
atom        12.4355600000       17.0829200000       14.4957700000 O         0.0000000000         0.0000000000       293.6427496203       11.1571001511       -0.5570098082
atom        17.9436800000       14.6602300000       14.3788000000 O         0.0000000000         0.0000000000      -201.6732394947     -214.1356382056       42.3911087444
atom        14.4437900000       18.0441500000       14.6408100000 O         0.0000000000         0.0000000000      -176.8713014010     -245.9152490419      -27.5558432974
atom        17.0819300000       12.6112800000       14.1888700000 O         0.0000000000         0.0000000000        34.3248004263      255.1587344785       85.4960557344
atom        14.2010600000       15.8149600000       14.3060500000 N         0.0000000000         0.0000000000        28.5001336305      -52.2253508710       79.7745080126
atom        13.5485000000       13.6208900000       15.0315200000 N         0.0000000000         0.0000000000       155.5146100369       57.4774252140     -149.3850872599
atom        15.7754200000       14.1615900000       14.7466200000 N         0.0000000000         0.0000000000       -46.7386933601       10.2632060939       59.7617940528
atom        13.6809400000       17.0730800000       14.5085400000 N         0.0000000000         0.0000000000       -74.2931519295       66.5999898966        6.9298424095
atom        17.0850200000       13.7897800000       14.5076400000 N         0.0000000000         0.0000000000        15.3414057456      -11.6966431941     -115.7206410026
energy     -3687.7598783733
charge 0
end
begin
comment generated by PY
lattice        30.0000000000         0.0000000000         0.0000000000
lattice         0.0000000000        30.0000000000         0.0000000000
lattice         0.0000000000         0.0000000000        30.0000000000
atom        12.3806300000       15.0271600000       14.2443700000 H         0.0000000000         0.0000000000       122.3805283888      -26.3802308251      -30.8747857382
atom        13.4973300000       14.3154800000       12.9883700000 H         0.0000000000         0.0000000000        -6.3142705371       44.7684327723      126.9799125598
atom        16.3070300000       16.1988300000       14.7676200000 H         0.0000000000         0.0000000000      -103.4451787718      -81.5700661683       36.5816329201
atom        15.2692400000       15.7524900000       16.1542500000 H         0.0000000000         0.0000000000        16.1924462749      -27.2708526205     -123.8691058481
atom        15.1175200000       12.7718900000       16.0891600000 H         0.0000000000         0.0000000000       -29.5666201087       40.1143053901     -113.5674649268
atom        15.1484600000       12.2902200000       14.3692500000 H         0.0000000000         0.0000000000       -25.6561242081      105.3476007637       76.4390032851
atom        13.3897800000       14.7098700000       14.0506200000 C         0.0000000000         0.0000000000        56.1639069623       -1.0499600462      115.7982535667
atom        15.4649900000       15.5637200000       15.0936100000 C         0.0000000000         0.0000000000       -30.4950734019      -74.6515361690      -79.4036924468
atom        14.8811600000       13.1623400000       15.0916200000 C         0.0000000000         0.0000000000       -23.1019654237      143.5993086087        2.1419696911
atom        12.3630200000       17.0346100000       14.3294500000 O         0.0000000000         0.0000000000       302.0433282187       11.7035186130       38.7175855715
atom        17.9753100000       14.5502400000       14.3467800000 O         0.0000000000         0.0000000000      -234.5182006137     -185.0570091232       12.5142221533
atom        14.3222500000       18.0242200000       14.7185700000 O         0.0000000000         0.0000000000      -165.2687278435     -237.3187257207      -45.8849186739
atom        17.1219500000       12.4999200000       14.1201500000 O         0.0000000000         0.0000000000       -34.7902791229      297.5718552733       71.4048370905
atom        14.2443400000       15.8386900000       14.2833400000 N         0.0000000000         0.0000000000       -15.7178150587      -76.8841300887       92.8014555333
atom        13.6148300000       13.6945900000       15.0734600000 N         0.0000000000         0.0000000000       176.8309630073       42.6819926287     -155.4861588023
atom        15.8067400000       14.2075800000       14.8432000000 N         0.0000000000         0.0000000000       -53.6697498315      -17.9766549478       13.5741416475
atom        13.6109400000       17.0508700000       14.4920900000 N         0.0000000000         0.0000000000       -63.4927452516       76.9368670315      -11.2294128786
atom        17.0335100000       13.7615500000       14.4037900000 N         0.0000000000         0.0000000000       112.4924849729      -34.5543699747      -26.6396236397
energy     -3696.1089696243
charge 0
end
begin
comment generated by PY
lattice        30.0000000000         0.0000000000         0.0000000000
lattice         0.0000000000        30.0000000000         0.0000000000
lattice         0.0000000000         0.0000000000        30.0000000000
atom        12.3899800000       15.1830600000       14.0854400000 H         0.0000000000         0.0000000000       120.6642200907      -54.3478133214       22.5727480466
atom        13.5051000000       14.2024600000       13.1100300000 H         0.0000000000         0.0000000000        -8.7860418587       52.9246488263      119.8208555608
atom        16.3722300000       16.3098100000       14.9305500000 H         0.0000000000         0.0000000000       -94.0692744660      -82.3165305721       16.6185131466
atom        15.2301400000       15.7158700000       16.1823300000 H         0.0000000000         0.0000000000        37.7178485975      -13.9718125173     -122.3189610910
atom        15.0060700000       12.7143800000       16.2831000000 H         0.0000000000         0.0000000000       -20.9997385541       74.3468630763     -121.7768077155
atom        14.9365000000       12.4069400000       14.5266900000 H         0.0000000000         0.0000000000        -4.1794494115       99.0937154979       81.1812609457
atom        13.3789000000       14.6823200000       14.1944800000 C         0.0000000000         0.0000000000        53.5898186907      -23.7136834436       12.5768977470
atom        15.5640300000       15.6337800000       15.1379800000 C         0.0000000000         0.0000000000       -61.0143577923      -99.9998066717      -63.4042888099
atom        14.8253600000       13.2693700000       15.2474400000 C         0.0000000000         0.0000000000       -26.4631294494       11.8686432829      -62.1721323097
atom        12.3044500000       17.0905400000       14.1886200000 O         0.0000000000         0.0000000000       306.6989591854      -15.7827293329       57.4971693234
atom        18.0306300000       14.4913600000       14.2939200000 O         0.0000000000         0.0000000000      -217.7298971236     -180.8628708309      -25.3197108880
atom        14.2129700000       18.0092100000       14.8355900000 O         0.0000000000         0.0000000000      -173.7999276370     -223.3967147736      -94.0763130942
atom        17.1574500000       12.4973900000       14.0851500000 O         0.0000000000         0.0000000000       -22.9142203894      280.4166496115       31.5954773754
atom        14.3643100000       15.8377200000       14.2200900000 N         0.0000000000         0.0000000000       -73.9599477808      -78.3063255072      118.9108380012
atom        13.4813900000       13.6467000000       15.0642700000 N         0.0000000000         0.0000000000       221.2682453758      133.3154427834     -110.3723912660
atom        15.9250100000       14.1868800000       14.8935000000 N         0.0000000000         0.0000000000      -125.6458386381       32.8205610359       30.9744207770