begin
comment generated by PY
lattice        30.0000000000         0.0000000000         0.0000000000
lattice         0.0000000000        30.0000000000         0.0000000000
lattice         0.0000000000         0.0000000000        30.0000000000
atom        13.8225500000       13.6248800000       15.5773200000 H         0.0000000000         0.0000000000        -9.1946245183       72.0139543932      -98.3862575364
atom        12.7170400000       14.3241900000       14.2217900000 H         0.0000000000         0.0000000000       111.7830069148        3.3236458393       51.8772486975
atom        16.3444400000       13.7465300000       14.3786400000 H         0.0000000000         0.0000000000       -32.8067811964      129.0603598832       37.3982448003
atom        17.4973000000       15.6326400000       15.4261600000 H         0.0000000000         0.0000000000       -68.9749444225        7.9265523360      -18.5731372054
atom        13.7099100000       14.2934400000       14.6898600000 C         0.0000000000         0.0000000000       139.0001226250       97.4419369125      -62.4061849627
atom        15.9840900000       14.8223800000       14.6716400000 C         0.0000000000         0.0000000000       -64.9781205129      156.2491673545       23.0794273430
atom        14.6425000000       14.9804400000       14.2279000000 N         0.0000000000         0.0000000000       -14.0802092837     -203.5569089410      174.6117232289
atom        16.5390600000       15.8285800000       15.1859800000 N         0.0000000000         0.0000000000       -60.7650778977     -262.4268546142     -107.6091969809
energy     -1552.3684540458
charge 0
end
begin
comment generated by PY
lattice        30.0000000000         0.0000000000         0.0000000000
lattice         0.0000000000        30.0000000000         0.0000000000
lattice         0.0000000000         0.0000000000        30.0000000000
atom        13.7736400000       13.4251500000       15.4347700000 H         0.0000000000         0.0000000000        -4.4766532053      104.0058385424      -69.2629090061
atom        12.6564900000       14.5746100000       14.4184500000 H         0.0000000000         0.0000000000       114.3341942335      -40.3264447412       26.3381139872
atom        16.6567200000       13.9180200000       14.5442300000 H         0.0000000000         0.0000000000      -101.3126444206      100.6903029819        3.6032315424
atom        17.5405800000       15.3780200000       15.4575700000 H         0.0000000000         0.0000000000       -98.7241572042       50.3740999166      -27.4446038365
atom        13.6710500000       14.2823100000       14.7235300000 C         0.0000000000         0.0000000000       141.5588367223       86.7032785557     -110.5159554235
atom        15.9238800000       14.9083600000       14.6667300000 C         0.0000000000         0.0000000000        66.2938183636       70.7511812509       33.0753150671
atom        14.6250700000       14.8941100000       14.1443400000 N         0.0000000000         0.0000000000       -12.8553981741     -113.7828911460      256.4192842876
atom        16.6238900000       15.8530100000       15.2269200000 N         0.0000000000         0.0000000000      -104.8379273551     -258.4055799302     -112.2069726924
energy     -1511.9197635521
charge 0
end
begin
comment generated by PY
lattice        30.0000000000         0.0000000000         0.0000000000
lattice         0.0000000000        30.0000000000         0.0000000000
lattice         0.0000000000         0.0000000000        30.0000000000
atom        13.8422800000       13.8386600000       15.7186100000 H         0.0000000000         0.0000000000       -24.7054638754       37.5813901035     -113.6830776710
atom        12.6455800000       14.2300600000       14.2365300000 H         0.0000000000         0.0000000000       119.7317312071        7.5385041111       53.8892807740
atom        16.3229200000       13.8745200000       14.3640900000 H         0.0000000000         0.0000000000       -19.8077942507       98.5045420296       27.8671378795
atom        17.5748400000       15.7067400000       15.4889900000 H         0.0000000000         0.0000000000       -84.6150949273       -4.4889194829      -27.9145242878
atom        13.6571700000       14.2606200000       14.7129700000 C         0.0000000000         0.0000000000       174.3505866026      143.5957874940      -69.6374542135
atom        16.0041100000       14.8365200000       14.6393600000 C         0.0000000000         0.0000000000       -51.6387466926      182.6619096497       66.2912395881
atom        14.6203800000       14.9589400000       14.1666500000 N         0.0000000000         0.0000000000       -32.5862838496     -204.8514077180      199.0247462991
atom        16.5889400000       15.8431300000       15.2405000000 N         0.0000000000         0.0000000000       -80.7053042715     -260.5474990819     -135.8504081835
energy     -1513.8072447038
charge 0
end
begin
comment generated by PY
lattice        30.0000000000         0.0000000000         0.0000000000
lattice         0.0000000000        30.0000000000         0.0000000000
lattice         0.0000000000         0.0000000000        30.0000000000
atom        13.7245500000       13.7601000000       15.6726000000 H         0.0000000000         0.0000000000        12.7979359941       67.1675839701      -94.8031149938
atom        12.8654500000       14.2648800000       14.0747700000 H         0.0000000000         0.0000000000        91.1647379867       15.3691072001       88.3552310839
atom        16.4851600000       14.0321500000       14.2212800000 H         0.0000000000         0.0000000000       -65.4712156710       84.0454969831       46.4963631063
atom        17.4632600000       15.4544700000       15.2304400000 H         0.0000000000         0.0000000000       -90.4829829516       40.8425778384        8.4743459098
atom        13.7413300000       14.3400700000       14.7537100000 C         0.0000000000         0.0000000000       133.1796922167       72.3606033732     -149.0100783366
atom        15.9231100000       14.8517700000       14.6385300000 C         0.0000000000         0.0000000000        -8.7797247728      160.1479483845        1.3010374964
atom        14.7135900000       14.9260300000       14.1974900000 N         0.0000000000         0.0000000000       -54.5052498866     -187.0116396629      222.4570888725
atom        16.4821100000       15.8046800000       15.2189200000 N         0.0000000000         0.0000000000       -17.9137391308     -252.9253916863     -123.2672248747
energy     -1589.3529733543
charge 0
end
begin
comment generated by PY
lattice        30.0000000000         0.0000000000         0.0000000000
lattice         0.0000000000        30.0000000000         0.0000000000
lattice         0.0000000000         0.0000000000        30.0000000000
atom        13.8457400000       13.8061400000       15.7184900000 H         0.0000000000         0.0000000000       -21.2352810563       59.3190600810     -107.0011877142
atom        12.5873800000       14.5255000000       14.5429700000 H         0.0000000000         0.0000000000       124.9688210986      -21.1128975256        2.5184948050
atom        16.6522800000       13.8982000000       14.2359000000 H         0.0000000000         0.0000000000       -74.7279309077      113.8475583155       35.6312559198
atom        17.5141200000       15.8326800000       15.5684800000 H         0.0000000000         0.0000000000       -90.3229002919      -19.7273757751      -38.7384924475
atom        13.6549800000       14.3439800000       14.7476500000 C         0.0000000000         0.0000000000       183.1300117344       91.0279204967      -42.4422069010
atom        16.0370500000       14.8708700000       14.5920500000 C         0.0000000000         0.0000000000       -12.4956144687      101.7120365146       73.9435722118
atom        14.6437300000       14.8517300000       14.1214700000 N         0.0000000000         0.0000000000       -42.9031005329     -105.2518583825      221.8795661416
atom        16.5239300000       15.8198900000       15.2781100000 N         0.0000000000         0.0000000000       -66.4393032095     -219.8133174571     -145.7706242487
energy     -1514.1300417694
charge 0
end
begin
comment generated by PY
lattice        30.0000000000         0.0000000000         0.0000000000
lattice         0.0000000000        30.0000000000         0.0000000000
lattice         0.0000000000         0.0000000000        30.0000000000
atom        13.7708900000       13.9379100000       15.8404500000 H         0.0000000000         0.0000000000        -2.4221936184       64.1752430975     -109.0473555415
atom        12.7653200000       14.3168200000       14.2641000000 H         0.0000000000         0.0000000000        95.1686477179       19.7132808098       73.2955544887
atom        16.7085700000       14.0813400000       14.0147500000 H         0.0000000000         0.0000000000       -71.5085502377       91.3679094795       58.9173901944
atom        17.4628000000       15.7755200000       15.4995400000 H         0.0000000000         0.0000000000       -81.4462158902       -4.6152808897      -18.5010570540
atom        13.6896300000       14.4277400000       14.8371100000 C         0.0000000000         0.0000000000       153.3026482412       10.1700391479     -166.7607908528
atom        16.0902700000       14.8552300000       14.5329900000 C         0.0000000000         0.0000000000       -62.4280712142      150.8846097641       93.3630790680
atom        14.6324700000       14.8072500000       14.0660000000 N         0.0000000000         0.0000000000       -13.0952348768      -87.0938124309      262.3403045695
atom        16.4521000000       15.8024300000       15.3394200000 N         0.0000000000         0.0000000000       -17.5648013188     -244.6027403688     -193.5888303128
energy     -1511.0400995579
charge 0
end
begin
comment generated by PY
lattice        30.0000000000         0.0000000000         0.0000000000
lattice         0.0000000000        30.0000000000         0.0000000000
lattice         0.0000000000         0.0000000000        30.0000000000
atom        14.0061200000       14.4274900000       15.8680300000 H         0.0000000000         0.0000000000       -30.1029045833      -11.0980996434     -107.8401936785
atom        12.7017100000       14.4848800000       14.5165500000 H         0.0000000000         0.0000000000       127.1201320143      -10.2987930482       19.8298714130
atom        16.6558300000       14.3392700000       14.0211900000 H         0.0000000000         0.0000000000       -76.8766809783       48.7548750508       38.2249711054
atom        17.4410200000       15.7128700000       15.3970600000 H         0.0000000000         0.0000000000      -111.0133370622       -8.9686184506      -11.7785092754
atom        13.7656500000       14.4403400000       14.8108800000 C         0.0000000000         0.0000000000       171.3651578062      109.0052096368      -70.1182099079
atom        15.9384800000       14.9168100000       14.5030300000 C         0.0000000000         0.0000000000        16.5186097587       81.8918198537       72.1778699727
atom        14.7546200000       14.7564200000       14.0975800000 N         0.0000000000         0.0000000000       -75.5905371116      -51.1743582049      225.9948067217
atom        16.3880200000       15.7287100000       15.3429100000 N         0.0000000000         0.0000000000       -21.4149430367     -158.0888558570     -166.4990446618
energy     -1600.5357335289
charge 0
end
begin
comment generated by PY
lattice        30.0000000000         0.0000000000         0.0000000000
lattice         0.0000000000        30.0000000000         0.0000000000
lattice         0.0000000000         0.0000000000        30.0000000000
atom        13.8594800000       14.3467900000       16.0511500000 H         0.0000000000         0.0000000000        13.4147815719       30.7623450981     -129.0813061758
atom        12.7599500000       14.3358900000       14.5862600000 H         0.0000000000         0.0000000000       112.6400886394       28.7083840002       31.2791331733
atom        16.7889800000       14.2711400000       13.7141300000 H         0.0000000000         0.0000000000       -77.0398752861       78.4607578675       93.2765575755
atom        17.3280800000       15.7599400000       15.5745800000 H         0.0000000000         0.0000000000       -63.2978020727       -2.4971691021      -13.2525116546
atom        13.7772000000       14.5329500000       14.9327900000 C         0.0000000000         0.0000000000       112.9098793136      -19.7145022961     -169.6924600959
atom        16.0866000000       14.8973700000       14.4430400000 C         0.0000000000         0.0000000000       -82.6886683736      111.9986468946       94.7923971104
atom        14.6765300000       14.6913100000       13.9467900000 N         0.0000000000         0.0000000000       -13.5950962518       -3.3132828542      341.0467590336
atom        16.3340000000       15.7489600000       15.4317800000 N         0.0000000000         0.0000000000        -2.3404872144     -224.3963157815     -248.3879553426
energy     -1473.2670789927
charge 0
end
begin
comment generated by PY
lattice        30.0000000000         0.0000000000         0.0000000000
lattice         0.0000000000        30.0000000000         0.0000000000
lattice         0.0000000000         0.0000000000        30.0000000000
atom        14.2932700000       14.7433400000       15.9194000000 H         0.0000000000         0.0000000000       -56.1545717110      -23.6815360920     -101.4919106631
atom        12.7903800000       14.4823400000       14.6472300000 H         0.0000000000         0.0000000000       123.8578862959        9.5311320953       32.1683072496
atom        16.8801800000       14.5363800000       13.7855300000 H         0.0000000000         0.0000000000      -104.4369384096       38.2404280211       65.2658436952
atom        17.2215800000       15.8694000000       15.6723500000 H         0.0000000000         0.0000000000       -95.8180681726      -30.1764586994      -38.1589363489
atom        13.8577400000       14.5722300000       14.9161500000 C         0.0000000000         0.0000000000       164.6561990002       45.0895464764     -134.0821500632
atom        16.0480000000       14.9194800000       14.3999400000 C         0.0000000000         0.0000000000       -76.3759256842       99.3994057763      130.1232557920
atom        14.7155200000       14.6720300000       14.0145000000 N         0.0000000000         0.0000000000         6.9244832241        6.7892223636      249.5911733694
atom        16.2269700000       15.6500200000       15.4082900000 N         0.0000000000         0.0000000000        37.3363145445     -145.1784268860     -203.4276128793
energy     -1563.8772714909
charge 0
end
begin
comment generated by PY
lattice        30.0000000000         0.0000000000         0.0000000000
lattice         0.0000000000        30.0000000000         0.0000000000
lattice         0.0000000000         0.0000000000        30.0000000000
atom        14.0094600000       14.5415300000       16.0237900000 H         0.0000000000         0.0000000000        22.7596129187       21.3608321629     -116.4075685440
atom        12.8615400000       14.6044800000       14.6926700000 H         0.0000000000         0.0000000000       115.7068712704       -0.5499992011       21.9998667714
atom        16.7426100000       14.5351700000       13.7639900000 H         0.0000000000         0.0000000000       -65.0233513377       53.3596159752       66.7915395624
atom        17.2273300000       15.7419600000       15.4562400000 H         0.0000000000         0.0000000000       -75.2611648111       -4.9279704462        8.1081878359
atom        13.9239600000       14.6338700000       14.9504800000 C         0.0000000000         0.0000000000        42.5588544519      -44.5956540133     -174.8821582029
atom        16.0239600000       14.9710600000       14.3961700000 C         0.0000000000         0.0000000000       -90.1457952253       26.8660715050      119.2705134555
atom        14.7155200000       14.5856600000       13.9398300000 N         0.0000000000         0.0000000000        20.2825636225      106.0505079850      350.8736588602
atom        16.2153700000       15.6541500000       15.4630000000 N         0.0000000000         0.0000000000        29.1209232355     -157.5701829502     -275.7788526753
energy     -1547.0114749308
charge 0
end
begin
comment generated by PY
lattice        30.0000000000         0.0000000000         0.0000000000
lattice         0.0000000000        30.0000000000         0.0000000000
lattice         0.0000000000         0.0000000000        30.0000000000
atom        14.2599800000       14.8152100000       15.9100700000 H         0.0000000000         0.0000000000       -56.9042325907      -33.7804766218     -103.2084248510
atom        12.7043400000       14.4625800000       14.8044600000 H         0.0000000000         0.0000000000       129.0420168121        9.7891778267       -3.8989875855
atom        16.8796100000       14.6285500000       13.5892600000 H         0.0000000000         0.0000000000       -97.9310247688       25.7747848011      102.9114630977
atom        17.2243800000       15.8807600000       15.7517100000 H         0.0000000000         0.0000000000       -80.8330974373      -24.8789051077      -45.8279970562
atom        13.7981400000       14.5681200000       14.9126300000 C         0.0000000000         0.0000000000       204.1198879924       54.7695283605     -111.1091793053
atom        16.0771700000       14.9147000000       14.4075700000 C         0.0000000000         0.0000000000       -75.5002883776      134.3261821389      105.1683387102
atom        14.7142100000       14.6475900000       13.9821300000 N         0.0000000000         0.0000000000       -37.4411350384       10.7678740610      272.6976832653
atom        16.2627500000       15.6709700000       15.4349200000 N         0.0000000000         0.0000000000        15.4340213510     -176.7602630229     -216.7059847954
energy     -1508.6480588152
charge 0
end
begin
comment generated by PY
lattice        30.0000000000         0.0000000000         0.0000000000
lattice         0.0000000000        30.0000000000         0.0000000000
lattice         0.0000000000         0.0000000000        30.0000000000
atom        13.8947500000       14.5819100000       16.0296900000 H         0.0000000000         0.0000000000         1.0311271867       -0.5749867453     -130.0364645658
atom        12.9291200000       14.2458000000       14.3258400000 H         0.0000000000         0.0000000000        85.4274077147       44.0862927200       86.3057545315
atom        16.7964500000       14.3544900000       13.9114100000 H         0.0000000000         0.0000000000       -98.4887448800       69.6685932924       44.4858471984
atom        17.3465800000       15.7924000000       15.4203300000 H         0.0000000000         0.0000000000       -96.3259163708      -20.3210057193        1.7620231381
atom        13.8152100000       14.5621300000       14.9082000000 C         0.0000000000         0.0000000000       127.5817246778      -17.0844273977     -188.4437992296
atom        15.9975400000       14.9337100000       14.4072800000 C         0.0000000000         0.0000000000       -35.8081126950       62.9766404721      147.9914897815
atom        14.7268400000       14.6890100000       14.0261800000 N         0.0000000000         0.0000000000        10.0636488994       11.2346142859      288.5186396200
atom        16.3110300000       15.6764100000       15.4212200000 N         0.0000000000         0.0000000000         6.4987423060     -149.9699707667     -250.5829878725
energy     -1551.7217477766
charge 0
end
begin
comment generated by PY
lattice        30.0000000000         0.0000000000         0.0000000000
lattice         0.0000000000        30.0000000000         0.0000000000
lattice         0.0000000000         0.0000000000        30.0000000000
atom        13.9347900000       14.2848000000       15.8890700000 H         0.0000000000         0.0000000000       -11.1642620627       20.7891463361     -112.5865687856
atom        12.6646700000       14.5348700000       14.6863200000 H         0.0000000000         0.0000000000       119.4394302857      -10.5097728034      -12.5316255468
atom        16.6160100000       14.3131500000       13.8083800000 H         0.0000000000         0.0000000000       -44.5518055804       61.7537308494       85.8712597656
atom        17.3896300000       15.6187000000       15.5567700000 H         0.0000000000         0.0000000000       -76.1607651776       17.8095507343      -22.7041421896
atom        13.7358800000       14.4734200000       14.8276900000 C         0.0000000000         0.0000000000       162.3139957601       53.8608508700      -65.0887958623
atom        16.0560500000       14.9026100000       14.5053800000 C         0.0000000000         0.0000000000       -94.6859849586      106.1938941791       55.4815790902
atom        14.6868300000       14.7171100000       14.0272400000 N         0.0000000000         0.0000000000       -38.7496409693      -10.4251103481      269.8411209955
atom        16.3947300000       15.7670200000       15.3869800000 N         0.0000000000         0.0000000000       -16.4423584751     -239.4861947223     -198.2903525377
energy     -1543.6109152102
charge 0
end
begin
comment generated by PY
lattice        30.0000000000         0.0000000000         0.0000000000
lattice         0.0000000000        30.0000000000         0.0000000000
lattice         0.0000000000         0.0000000000        30.0000000000
atom        13.8723800000       13.9956700000       15.8510400000 H         0.0000000000         0.0000000000       -13.2169495322       50.0055888171     -116.3732117151
atom        12.7467500000       14.4652900000       14.2960400000 H         0.0000000000         0.0000000000       111.6988360764       -7.0388842226       71.3495511413
atom        16.7920200000       14.0993400000       14.1703500000 H         0.0000000000         0.0000000000      -104.1425478080       84.6473201353       26.3997716773
atom        17.4446900000       15.9126200000       15.3578500000 H         0.0000000000         0.0000000000      -100.3642364263      -36.4837746868       -0.7418089523
atom        13.7392100000       14.4164300000       14.8235200000 C         0.0000000000         0.0000000000       144.5692472801       70.3735847981     -149.4496338335
atom        16.0164500000       14.8532900000       14.5399700000 C         0.0000000000         0.0000000000       -15.7996160390      133.0107958680       85.8974096659
atom        14.6839600000       14.8421600000       14.0814200000 N         0.0000000000         0.0000000000        -7.4316843918     -121.8522931316      268.9833029320
atom        16.4108200000       15.7530700000       15.3256500000 N         0.0000000000         0.0000000000       -15.3073240223     -172.6504724265     -186.0627091322
energy     -1541.2153262432
charge 0
end
begin
comment generated by PY
lattice        30.0000000000         0.0000000000         0.0000000000
lattice         0.0000000000        30.0000000000         0.0000000000
lattice         0.0000000000         0.0000000000        30.0000000000
atom        13.9432000000       13.9060800000       15.7587200000 H         0.0000000000         0.0000000000       -37.5605894518       47.7149677792     -111.2718272236
atom        12.6980300000       14.4022800000       14.2844700000 H         0.0000000000         0.0000000000       119.0970656774       -3.2098309355       58.9315702844
atom        16.4175300000       13.9675100000       13.9952100000 H         0.0000000000         0.0000000000       -30.8569775057       96.0215199557       76.3607206398
atom        17.3495800000       15.4737700000       15.5959600000 H         0.0000000000         0.0000000000       -51.8668800473       34.9506903021      -30.7513833946
atom        13.7094500000       14.3626200000       14.7634100000 C         0.0000000000         0.0000000000       193.0875115712       90.3185521656      -94.2162283119
atom        15.9918800000       14.8226400000       14.5585200000 C         0.0000000000         0.0000000000      -104.4785551692      174.4016167995       38.1055403972
atom        14.7092200000       14.8755900000       14.1601000000 N         0.0000000000         0.0000000000       -40.0053584004     -142.7457115606      206.5193996532
atom        16.4641100000       15.8437700000       15.2855500000 N         0.0000000000         0.0000000000       -47.4516987071     -297.4606858773     -143.6923275219
energy     -1538.0471274435
charge 0
end
begin
comment generated by PY
lattice        30.0000000000         0.0000000000         0.0000000000
lattice         0.0000000000        30.0000000000         0.0000000000
lattice         0.0000000000         0.0000000000        30.0000000000
atom        13.6386700000       13.7111600000       15.6617400000 H         0.0000000000         0.0000000000        31.2036099770       67.6061092258      -89.9694221116
atom        12.6400700000       14.3626100000       14.4247400000 H         0.0000000000         0.0000000000       118.8595376167        1.9699807642       14.9995938515
atom        16.5669100000       13.9792400000       14.4797600000 H         0.0000000000         0.0000000000       -69.9306875502       95.1127294485       -3.6377876799
atom        17.6115100000       15.7325800000       15.3707600000 H         0.0000000000         0.0000000000      -117.7178979391      -11.4884743011       -8.6516971864
atom        13.6759400000       14.3068300000       14.7519100000 C         0.0000000000         0.0000000000       120.0300667792       92.7402834882     -100.0871763213
atom        15.9975900000       14.8898400000       14.6197100000 C         0.0000000000         0.0000000000         7.2556768396       99.0736232330       84.8637137066
atom        14.6396700000       14.9000500000       14.1043700000 N         0.0000000000         0.0000000000       -38.7634430278     -149.2444386364      262.3009917631
atom        16.5540400000       15.8069500000       15.2770300000 N         0.0000000000         0.0000000000       -50.9469528228     -195.7712061890     -159.8284240869
energy     -1529.3871650117
charge 0
end
begin
comment generated by PY
lattice        30.0000000000         0.0000000000         0.0000000000
lattice         0.0000000000        30.0000000000         0.0000000000
lattice         0.0000000000         0.0000000000        30.0000000000
atom        13.9351500000       13.7685800000       15.6490800000 H         0.0000000000         0.0000000000       -47.0006339705       56.1248468048     -106.1921473039
atom        12.7586100000       14.2584000000       14.0945100000 H         0.0000000000         0.0000000000       102.9508013259        6.3934986890       77.9043600678
atom        16.4278600000       13.9672800000       14.1396200000 H         0.0000000000         0.0000000000       -52.7821036113       99.3385768292       74.1404394066
atom        17.5210400000       15.5137900000       15.3306300000 H         0.0000000000         0.0000000000       -71.3758129538       24.0167615526      -10.1105956255
atom        13.6891900000       14.3075300000       14.6946900000 C         0.0000000000         0.0000000000       183.1074507523       80.5023435491      -78.7551786001
atom        15.9385000000       14.8573100000       14.6914600000 C         0.0000000000         0.0000000000       -12.1347288047      153.8745894846      -46.4240290642
atom        14.6506800000       14.9171900000       14.2000200000 N         0.0000000000         0.0000000000       -13.3362194343     -152.6067263397      199.1139562020
atom        16.5691000000       15.8369300000       15.2205600000 N         0.0000000000         0.0000000000       -89.4295675419     -267.6353653191     -109.6616563319
energy     -1555.4955946707
charge 0
end
begin
comment generated by PY
lattice        30.0000000000         0.0000000000         0.0000000000
lattice         0.0000000000        30.0000000000         0.0000000000
lattice         0.0000000000         0.0000000000        30.0000000000
atom        13.5007300000       13.6757100000       15.6558700000 H         0.0000000000         0.0000000000        40.9476797155       55.9750758600     -108.1031009667
atom        12.7458600000       14.4147400000       14.1215100000 H         0.0000000000         0.0000000000       101.2634218756      -21.9708696646       65.3752457427
atom        16.3845200000       13.8006900000       14.5377800000 H         0.0000000000         0.0000000000       -38.3499753203      124.0565781512       -1.0671546636
atom        17.5450200000       15.5935500000       15.5067500000 H         0.0000000000         0.0000000000       -90.9783004018       16.7261222339      -34.6048081924
atom        13.6745500000       14.2407600000       14.6896100000 C         0.0000000000         0.0000000000       101.8272154946      168.1432283469      -76.3600689379
atom        16.0094400000       14.8517500000       14.6081500000 C         0.0000000000         0.0000000000       -63.0345358875      142.9470062028      125.3562907944
atom        14.6250700000       14.9671700000       14.2415500000 N         0.0000000000         0.0000000000         3.7605190035     -219.7003480678      159.2627778406
atom        16.5797300000       15.8506700000       15.2114400000 N         0.0000000000         0.0000000000       -55.4265384108     -266.1814827502     -129.8709953442
energy     -1521.1170797798
charge 0
end
begin
comment generated by PY
lattice        30.0000000000         0.0000000000         0.0000000000
lattice         0.0000000000        30.0000000000         0.0000000000
lattice         0.0000000000         0.0000000000        30.0000000000