begin
comment generated by PY
lattice        30.0000000000         0.0000000000         0.0000000000
lattice         0.0000000000        30.0000000000         0.0000000000
lattice         0.0000000000         0.0000000000        30.0000000000
atom        15.5685000000       15.7704000000       16.3135000000 H         0.0000000000         0.0000000000        -4.9219162509      -93.7994289269     -112.4923365685
atom        16.8416000000       15.7598000000       13.8784000000 H         0.0000000000         0.0000000000       -32.5626193810      -85.1269992041       75.9382079589
atom        17.0071000000       13.9713000000       14.1951000000 H         0.0000000000         0.0000000000       -55.4343851974       96.8959630234       42.6448725893
atom        16.5895000000       14.9138000000       14.5043000000 C         0.0000000000         0.0000000000      -112.4878147050        9.3954350729       74.9914341688
atom        13.1490000000       15.7220000000       15.5213000000 O         0.0000000000         0.0000000000       253.4849889239     -122.5368956148     -176.4450421513
atom        13.9600000000       15.0077000000       13.5629000000 O         0.0000000000         0.0000000000        50.0456649028       59.5093681313      325.5262653215
atom        14.0870000000       15.2641000000       14.7998000000 N         0.0000000000         0.0000000000      -198.7799519513       50.1777668047      -96.5699094920
atom        15.5464000000       14.9604000000       15.5310000000 N         0.0000000000         0.0000000000       100.6560505983       85.4851537743     -133.5935148875
energy     -1399.9872911678
charge 0
end
begin
comment generated by PY
lattice        30.0000000000         0.0000000000         0.0000000000
lattice         0.0000000000        30.0000000000         0.0000000000
lattice         0.0000000000         0.0000000000        30.0000000000
atom        15.6458000000       15.3520000000       16.5295000000 H         0.0000000000         0.0000000000        -3.5497932525      -41.3335634027     -128.7334281934
atom        17.5333000000       15.2727000000       14.8609000000 H         0.0000000000         0.0000000000      -102.4571058261      -27.3410819109      -26.4319724777
atom        16.4309000000       14.6624000000       13.4891000000 H         0.0000000000         0.0000000000        -3.6048910623       36.7862296674      133.9364406598
atom        16.5605000000       14.9837000000       14.5582000000 C         0.0000000000         0.0000000000      -120.0880336084      -20.0456331101      147.4711799192
atom        13.2250000000       15.7048000000       15.5352000000 O         0.0000000000         0.0000000000       203.0845862175      -52.2356871410     -209.1635886945
atom        13.8965000000       14.8502000000       13.6098000000 O         0.0000000000         0.0000000000        58.8713356652      152.4302945880      251.9520331025
atom        14.0846000000       15.4478000000       14.6676000000 N         0.0000000000         0.0000000000      -224.8292555532     -116.9472517367        3.5306877664
atom        15.5455000000       14.9315000000       15.5124000000 N         0.0000000000         0.0000000000       192.5736574198       68.6869180460     -172.5617520824
energy     -1436.7931303708
charge 0
end
begin
comment generated by PY
lattice        30.0000000000         0.0000000000         0.0000000000
lattice         0.0000000000        30.0000000000         0.0000000000
lattice         0.0000000000         0.0000000000        30.0000000000
atom        15.9466000000       16.6909000000       15.2275000000 H         0.0000000000         0.0000000000       -23.3566631900     -156.2927763728      -26.1479098995
atom        17.3135000000       14.4315000000       15.7156000000 H         0.0000000000         0.0000000000       -90.3929831807        8.0639510353      -61.9187144049
atom        16.1525000000       13.4707000000       14.7293000000 H         0.0000000000         0.0000000000        17.4670613078      117.2313512932       30.5762044197
atom        16.4553000000       14.4380000000       15.0903000000 C         0.0000000000         0.0000000000       -97.5271952026      165.9177272137       24.0800105595
atom        13.3810000000       15.1071000000       15.6739000000 O         0.0000000000         0.0000000000       161.1828381362       82.9201801044     -235.1759848631
atom        13.7308000000       15.3003000000       13.4657000000 O         0.0000000000         0.0000000000        81.9605407431       44.5465662245      304.9252820952
atom        14.0312000000       15.4687000000       14.6982000000 N         0.0000000000         0.0000000000      -174.7949250527     -122.3102978727      -46.8510568940
atom        15.7143000000       15.5972000000       14.9749000000 N         0.0000000000         0.0000000000       125.4618264389     -140.0765216255       10.5123619872
energy     -1423.0837016875
charge 0
end
begin
comment generated by PY
lattice        30.0000000000         0.0000000000         0.0000000000
lattice         0.0000000000        30.0000000000         0.0000000000
lattice         0.0000000000         0.0000000000        30.0000000000
atom        15.9295000000       14.6292000000       13.5280000000 H         0.0000000000         0.0000000000       -30.4740482680       33.8201735935      124.3186655069
atom        17.4104000000       15.9028000000       15.2359000000 H         0.0000000000         0.0000000000       -92.3055093876      -79.4816786032       28.1111270792
atom        16.2818000000       15.3511000000       16.6139000000 H         0.0000000000         0.0000000000        21.9339856279      -17.9407433650     -127.3228475728
atom        16.5797000000       15.2584000000       15.5574000000 C         0.0000000000         0.0000000000      -121.6083250179       -8.4203082188     -123.7752090641
atom        13.2890000000       14.4945000000       15.3332000000 O         0.0000000000         0.0000000000       209.4411640647      198.2587558086     -173.2901353074
atom        13.7340000000       16.1513000000       13.8680000000 O         0.0000000000         0.0000000000        92.8407398959     -233.3837225763      198.3831227139
atom        14.0705000000       15.2500000000       14.6517000000 N         0.0000000000         0.0000000000      -218.1074407788        8.9200702518      -34.0636721028
atom        15.6548000000       14.7474000000       14.5712000000 N         0.0000000000         0.0000000000       138.2792338637       98.2280869882      107.6384256865
energy     -1407.8451756526
charge 0
end
begin
comment generated by PY
lattice        30.0000000000         0.0000000000         0.0000000000
lattice         0.0000000000        30.0000000000         0.0000000000
lattice         0.0000000000         0.0000000000        30.0000000000
atom        15.5845000000       13.6261000000       15.6066000000 H         0.0000000000         0.0000000000       -10.7812119336      143.1774439663      -37.3232695248
atom        17.2928000000       14.8342000000       14.1435000000 H         0.0000000000         0.0000000000       -80.7493572999       59.6578683727       64.2561834347
atom        16.4221000000       16.4537000000       14.4525000000 H         0.0000000000         0.0000000000         6.5734269081     -114.8724988354       31.6081495310
atom        16.5673000000       15.4213000000       14.6818000000 C         0.0000000000         0.0000000000      -131.0245095449      -95.4902622030       62.3146772187
atom        13.2295000000       14.2411000000       14.5715000000 O         0.0000000000         0.0000000000       217.7760417166      240.8716334753       68.2160482600
atom        13.9221000000       16.3939000000       14.4830000000 O         0.0000000000         0.0000000000        52.0521083354     -320.2600800735       92.1333441317
atom        14.0791000000       15.1962000000       14.7874000000 N         0.0000000000         0.0000000000      -179.7146259644       34.5939197373     -120.8981209169
atom        15.5330000000       14.7430000000       15.4382000000 N         0.0000000000         0.0000000000       125.8684939038       52.3219755603     -160.3071351948
energy     -1410.0023161183
charge 0
end
begin
comment generated by PY
lattice        30.0000000000         0.0000000000         0.0000000000
lattice         0.0000000000        30.0000000000         0.0000000000
lattice         0.0000000000         0.0000000000        30.0000000000
atom        15.8068000000       16.3720000000       15.7419000000 H         0.0000000000         0.0000000000       -23.9999050241     -128.1432401264      -45.0469090180
atom        17.5953000000       14.7008000000       14.7707000000 H         0.0000000000         0.0000000000      -124.9258317800       -4.5803237472      -12.0395018068
atom        16.2479000000       13.9654000000       13.7279000000 H         0.0000000000         0.0000000000        12.6008859506       76.2242573508      107.4143836620
atom        16.5256000000       14.5965000000       14.5843000000 C         0.0000000000         0.0000000000       -70.6645979570       85.5402625216       83.3081262106
atom        13.7084000000       14.3182000000       14.1054000000 O         0.0000000000         0.0000000000       109.9444813899      241.3247700997      187.1761788045
atom        13.3874000000       16.3412000000       15.0271000000 O         0.0000000000         0.0000000000       176.7336988458     -264.0111457873      -43.8031336750
atom        14.0626000000       15.2859000000       14.7968000000 N         0.0000000000         0.0000000000      -152.4502928676       37.4251380586      -91.3605184137
atom        15.6239000000       15.3241000000       15.4207000000 N         0.0000000000         0.0000000000        72.7612383818      -43.7803614304     -185.6481718846
energy     -1417.3674405684
charge 0
end
begin
comment generated by PY
lattice        30.0000000000         0.0000000000         0.0000000000
lattice         0.0000000000        30.0000000000         0.0000000000
lattice         0.0000000000         0.0000000000        30.0000000000
atom        15.8769000000       15.4235000000       13.5867000000 H         0.0000000000         0.0000000000       -16.1223181524       -3.6810000678      133.6445236311
atom        17.3214000000       13.9803000000       14.9914000000 H         0.0000000000         0.0000000000       -77.4765992991       72.6570375814       32.7765504557
atom        16.3203000000       14.3896000000       16.4410000000 H         0.0000000000         0.0000000000        23.1573563153       33.5632392140     -110.8605355228
atom        16.5846000000       14.6042000000       15.4258000000 C         0.0000000000         0.0000000000      -138.8988935412       82.7224474374      -86.7293682412
atom        13.5677000000       14.8190000000       13.6146000000 O         0.0000000000         0.0000000000       141.4647892746       92.1362465176      265.1815449510
atom        13.4001000000       15.8646000000       15.5659000000 O         0.0000000000         0.0000000000       182.7659261333     -171.9907189835     -208.3109124621
atom        14.0662000000       15.2083000000       14.7044000000 N         0.0000000000         0.0000000000      -247.5646378972       92.3326226543      -55.2252616422
atom        15.7253000000       15.4565000000       14.6807000000 N         0.0000000000         0.0000000000       132.6734002272     -197.7400974141       29.5241588304
energy     -1423.8560674444
charge 0
end
begin
comment generated by PY
lattice        30.0000000000         0.0000000000         0.0000000000
lattice         0.0000000000        30.0000000000         0.0000000000
lattice         0.0000000000         0.0000000000        30.0000000000
atom        16.0020000000       14.4769000000       13.4554000000 H         0.0000000000         0.0000000000       -56.1364713137       24.8514452895      145.9310835845
atom        17.5162000000       15.4576000000       15.3919000000 H         0.0000000000         0.0000000000      -130.8212519227      -21.7748150834        0.6773161617
atom        15.9436000000       15.7385000000       16.4255000000 H         0.0000000000         0.0000000000        46.1308194272      -55.2970929919     -117.0945750888
atom        16.4215000000       15.3326000000       15.4992000000 C         0.0000000000         0.0000000000       -75.8242287455      -82.5659766112      -77.4573679925
atom        13.6032000000       15.4011000000       13.4671000000 O         0.0000000000         0.0000000000       127.8998507542      -60.0999951615      292.3208941695
atom        13.5327000000       15.3808000000       15.7580000000 O         0.0000000000         0.0000000000       173.2079304990      -58.5160322969     -280.6097952930
atom        14.1202000000       15.2012000000       14.6713000000 N         0.0000000000         0.0000000000      -179.7900608590       71.6888269991      -42.8679236519
atom        15.6232000000       14.5921000000       14.5817000000 N         0.0000000000         0.0000000000        95.3328121605      181.7135598563       79.1001181105
energy     -1390.2659846857
charge 0
end
begin
comment generated by PY
lattice        30.0000000000         0.0000000000         0.0000000000
lattice         0.0000000000        30.0000000000         0.0000000000
lattice         0.0000000000         0.0000000000        30.0000000000
atom        15.7954000000       13.5527000000       14.4995000000 H         0.0000000000         0.0000000000       -23.6144905098      123.7800846535       26.6396147792
atom        17.7480000000       15.0752000000       15.2543000000 H         0.0000000000         0.0000000000      -127.9973834374       25.8775145121       -3.7194756383
atom        16.5166000000       16.3877000000       15.7434000000 H         0.0000000000         0.0000000000         6.0164025137     -115.5775758290      -58.6103369273
atom        16.6962000000       15.4105000000       15.2782000000 C         0.0000000000         0.0000000000      -115.0726994204      -86.6529636077      -49.4187081283
atom        13.6929000000       15.5665000000       13.5348000000 O         0.0000000000         0.0000000000       104.0069369056      -99.1281690296      275.5485935241
atom        13.2632000000       15.1815000000       15.6944000000 O         0.0000000000         0.0000000000       212.5803852316       -4.4973371466     -246.1856902510
atom        14.0437000000       15.2224000000       14.6648000000 N         0.0000000000         0.0000000000      -213.5046262184       70.4308526923      -25.0362582262
atom        15.6268000000       14.5898000000       14.7571000000 N         0.0000000000         0.0000000000       157.5856749351       85.7678837549       80.7824339285
energy     -1391.5507838718
charge 0
end
begin
comment generated by PY
lattice        30.0000000000         0.0000000000         0.0000000000
lattice         0.0000000000        30.0000000000         0.0000000000
lattice         0.0000000000         0.0000000000        30.0000000000
atom        15.6191000000       13.7084000000       15.7009000000 H         0.0000000000         0.0000000000        -0.1801263127      119.3476068987      -84.9257421523
atom        17.7226000000       15.2288000000       15.4571000000 H         0.0000000000         0.0000000000      -113.5873904290        5.2613613603      -38.4619248022
atom        16.7560000000       16.3216000000       14.3930000000 H         0.0000000000         0.0000000000        -9.6902622493     -106.8638699506       60.0410985674
atom        16.7742000000       15.4095000000       14.9813000000 C         0.0000000000         0.0000000000      -154.1245897223      -82.6131940100      -21.6105637301
atom        13.7941000000       15.7475000000       13.6107000000 O         0.0000000000         0.0000000000        74.2779404967     -124.9736933442      286.1968593914
atom        13.1262000000       14.9363000000       15.5594000000 O         0.0000000000         0.0000000000       234.5522676582       66.3532157858     -193.1558816706
atom        14.0188000000       15.2676000000       14.7570000000 N         0.0000000000         0.0000000000      -244.4210470743       42.8645864808      -74.1601933945
atom        15.6231000000       14.6014000000       14.9834000000 N         0.0000000000         0.0000000000       213.1727740327       80.6239167793       66.0766177909
energy     -1417.0124430920
charge 0
end
begin
comment generated by PY
lattice        30.0000000000         0.0000000000         0.0000000000
lattice         0.0000000000        30.0000000000         0.0000000000
lattice         0.0000000000         0.0000000000        30.0000000000
atom        15.6276000000       14.7274000000       16.4418000000 H         0.0000000000         0.0000000000       -11.1233118545        5.5423988262     -152.9049328763
atom        17.6828000000       15.3942000000       15.0321000000 H         0.0000000000         0.0000000000      -122.4275018914      -12.6166909376      -28.4038074740
atom        16.7040000000       15.4982000000       13.5008000000 H         0.0000000000         0.0000000000       -22.5406374706      -30.7968844028      132.6808858151
atom        16.6845000000       15.2950000000       14.6039000000 C         0.0000000000         0.0000000000      -107.7933062378      -67.9553137428       48.9196405566
atom        13.9913000000       15.9807000000       13.8020000000 O         0.0000000000         0.0000000000        25.2524580911     -218.6120875884      241.4144599188
atom        13.0369000000       14.7233000000       15.3796000000 O         0.0000000000         0.0000000000       267.2929429791       89.6922175617     -141.1043064406
atom        14.0269000000       15.1650000000       14.7973000000 N         0.0000000000         0.0000000000      -180.7638629169      120.6875458541      -62.8501134287
atom        15.5746000000       14.7534000000       15.2948000000 N         0.0000000000         0.0000000000       152.1040223614      114.0590744296      -37.7518260709
energy     -1411.8077551258
charge 0
end
begin
comment generated by PY
lattice        30.0000000000         0.0000000000         0.0000000000
lattice         0.0000000000        30.0000000000         0.0000000000
lattice         0.0000000000         0.0000000000        30.0000000000
atom        15.4924000000       13.8021000000       15.7162000000 H         0.0000000000         0.0000000000        14.4252294629      130.5270138233      -29.8158803395
atom        17.4710000000       14.8109000000       14.4202000000 H         0.0000000000         0.0000000000      -101.0321659221       42.8519431122       17.7427100883
atom        16.2718000000       16.0732000000       13.8131000000 H         0.0000000000         0.0000000000        20.3860030606      -85.2368440379       90.6165109223
atom        16.5416000000       15.3010000000       14.5202000000 C         0.0000000000         0.0000000000      -114.9679965955      -53.7434573274       97.0124977908
atom        14.0805000000       15.8982000000       13.7887000000 O         0.0000000000         0.0000000000        15.4690118123     -168.2422326233      263.1772791342
atom        13.0440000000       14.7185000000       15.3590000000 O         0.0000000000         0.0000000000       273.1017727137      121.4805108279     -125.2240917706
atom        14.0863000000       15.2003000000       14.7949000000 N         0.0000000000         0.0000000000      -187.0633828672       16.1727931256      -94.7492343197
atom        15.5832000000       14.8794000000       15.4810000000 N         0.0000000000         0.0000000000        79.6815183355       -3.8090638398     -218.7591915058
energy     -1435.6236018103
charge 0
end
begin
comment generated by PY
lattice        30.0000000000         0.0000000000         0.0000000000
lattice         0.0000000000        30.0000000000         0.0000000000
lattice         0.0000000000         0.0000000000        30.0000000000
atom        15.6063000000       13.8241000000       15.8909000000 H         0.0000000000         0.0000000000       -11.0678322590      134.2934386496      -87.3027968552
atom        17.7619000000       14.9265000000       14.8008000000 H         0.0000000000         0.0000000000      -127.6211101622       26.2695477789       -3.1824872514
atom        16.6381000000       16.1773000000       14.1046000000 H         0.0000000000         0.0000000000        -0.5838214703      -90.9613760822       66.1065094771
atom        16.7378000000       15.3105000000       14.7045000000 C         0.0000000000         0.0000000000      -152.0652323532      -42.1618750142       51.1016283507
atom        13.8794000000       15.9145000000       13.7449000000 O         0.0000000000         0.0000000000        85.8218737449     -184.7764889261      241.0455182736
atom        13.0787000000       14.8072000000       15.4386000000 O         0.0000000000         0.0000000000       267.5711626703       58.5531255501     -137.5588487087
atom        14.0624000000       15.1242000000       14.7513000000 N         0.0000000000         0.0000000000      -226.9174087353       93.3360131563      -76.7334691727
atom        15.5740000000       14.8101000000       15.2652000000 N         0.0000000000         0.0000000000       164.8627555041        5.4473148877      -53.4755671739
energy     -1422.8953540972
charge 0
end
begin
comment generated by PY
lattice        30.0000000000         0.0000000000         0.0000000000
lattice         0.0000000000        30.0000000000         0.0000000000
lattice         0.0000000000         0.0000000000        30.0000000000
atom        15.6160000000       15.1281000000       16.4639000000 H         0.0000000000         0.0000000000       -22.1789633664      -54.7217406987     -140.2458505720
atom        17.5904000000       15.5264000000       14.7278000000 H         0.0000000000         0.0000000000      -121.3792600944      -31.5291794569        3.8111585206
atom        16.3004000000       15.5650000000       13.5145000000 H         0.0000000000         0.0000000000         9.8890222275      -36.2527324927      115.6129493890
atom        16.5475000000       15.3135000000       14.5269000000 C         0.0000000000         0.0000000000       -96.1310673609      -48.5406224552       47.5707346851
atom        14.0752000000       15.9866000000       13.8178000000 O         0.0000000000         0.0000000000        26.3968407637     -223.9323056361      243.2978564849
atom        13.0575000000       14.6953000000       15.3654000000 O         0.0000000000         0.0000000000       281.8246887626      105.1891854494     -140.5045820181
atom        14.1104000000       15.1635000000       14.7917000000 N         0.0000000000         0.0000000000      -189.3364094929       92.1153179686      -40.8540768500
atom        15.5254000000       14.7214000000       15.3838000000 N         0.0000000000         0.0000000000       110.9149885609      197.6721773216      -88.6888896396
energy     -1399.2370055197
charge 0
end
begin
comment generated by PY
lattice        30.0000000000         0.0000000000         0.0000000000
lattice         0.0000000000        30.0000000000         0.0000000000
lattice         0.0000000000         0.0000000000        30.0000000000
atom        15.4149000000       14.3205000000       16.2520000000 H         0.0000000000         0.0000000000        17.0820844023       87.1312843394     -115.8111235536
atom        17.3060000000       14.3340000000       14.2250000000 H         0.0000000000         0.0000000000       -72.4871257631       64.4845081482       52.7211783972
atom        16.9303000000       16.0397000000       14.0042000000 H         0.0000000000         0.0000000000       -49.9868182936      -99.5135051688       66.5336389678
atom        16.6708000000       15.1170000000       14.5444000000 C         0.0000000000         0.0000000000      -119.9042253285       27.0470301834       78.2666567036
atom        13.9616000000       15.9842000000       13.7750000000 O         0.0000000000         0.0000000000        28.6750126267     -216.1194888776      262.8926597981
atom        13.0979000000       14.5946000000       15.3831000000 O         0.0000000000         0.0000000000       252.7666630901      153.8850043377     -157.6394986135
atom        14.0546000000       15.1867000000       14.7529000000 N         0.0000000000         0.0000000000      -183.9085419492       57.8358149403      -60.1704263279
atom        15.5487000000       15.0935000000       15.4522000000 N         0.0000000000         0.0000000000       127.7635712152      -74.7497917813     -126.7922853718
energy     -1405.1977947262
charge 0
end
begin
comment generated by PY
lattice        30.0000000000         0.0000000000         0.0000000000
lattice         0.0000000000        30.0000000000         0.0000000000
lattice         0.0000000000         0.0000000000        30.0000000000
atom        15.3333000000       15.1210000000       16.4131000000 H         0.0000000000         0.0000000000        39.9215228827       42.9371162291     -138.3805161724
atom        17.0381000000       13.7576000000       15.2149000000 H         0.0000000000         0.0000000000       -75.3003538223      100.1301087349      -50.0094687802
atom        16.7813000000       14.6290000000       13.5672000000 H         0.0000000000         0.0000000000       -51.3877641335        9.7809469858      135.3079765100
atom        16.4774000000       14.5791000000       14.6842000000 C         0.0000000000         0.0000000000       -62.3984105217       77.5390565563       63.2415420189
atom        13.6739000000       16.2384000000       13.9184000000 O         0.0000000000         0.0000000000       104.3456149606     -220.9570714427      240.1876899277
atom        13.5153000000       14.2861000000       15.1146000000 O         0.0000000000         0.0000000000       132.0815710878      287.1126013609      -75.5973464505
atom        14.0585000000       15.3937000000       14.8137000000 N         0.0000000000         0.0000000000      -161.6089683463      -72.7929273214     -141.1991343644
atom        15.5982000000       15.4949000000       15.3636000000 N         0.0000000000         0.0000000000        74.3465878927     -223.7496180424      -33.5509196286
energy     -1384.2400649007
charge 0
end
begin
comment generated by PY
lattice        30.0000000000         0.0000000000         0.0000000000
lattice         0.0000000000        30.0000000000         0.0000000000
lattice         0.0000000000         0.0000000000        30.0000000000
atom        16.1769000000       16.5351000000       14.7120000000 H         0.0000000000         0.0000000000       -79.1545150240     -133.8938725589       53.9160922546
atom        17.5983000000       14.5059000000       15.0439000000 H         0.0000000000         0.0000000000      -127.5683018798        5.7561140321       -4.1069723483
atom        16.1563000000       13.4606000000       15.0666000000 H         0.0000000000         0.0000000000        16.4009974347       87.2614621208       -0.9567118638
atom        16.5133000000       14.4089000000       15.0251000000 C         0.0000000000         0.0000000000       -86.7372399713      138.7714787562       26.1321681944
atom        13.4842000000       16.4027000000       14.2593000000 O         0.0000000000         0.0000000000       156.5363587112     -252.0120546021      135.3596083747
atom        13.5652000000       14.2028000000       14.8187000000 O         0.0000000000         0.0000000000       141.9679678170      294.9878413628       -5.1408399850
atom        14.0591000000       15.3606000000       14.7328000000 N         0.0000000000         0.0000000000      -158.8054649801      -33.6623303626     -110.7932568059
atom        15.6709000000       15.5104000000       15.1272000000 N         0.0000000000         0.0000000000       137.3603748316     -107.2074587484      -94.4101478207
energy     -1415.0110542057
charge 0
end
begin
comment generated by PY
lattice        30.0000000000         0.0000000000         0.0000000000
lattice         0.0000000000        30.0000000000         0.0000000000
lattice         0.0000000000         0.0000000000        30.0000000000
atom        16.0554000000       15.2641000000       13.5718000000 H         0.0000000000         0.0000000000       -27.6324281245       29.3260248238      111.7925998200
atom        17.2662000000       14.0909000000       15.4397000000 H         0.0000000000         0.0000000000       -95.4128801869       49.3997491996      -13.7450896504
atom        15.7698000000       14.3056000000       16.3507000000 H         0.0000000000         0.0000000000        48.1614687392       35.1736749350      -85.0061729904
atom        16.3257000000       14.5456000000       15.5067000000 C         0.0000000000         0.0000000000       -78.0626576728      114.7127914269      -98.5084432825
atom        13.4396000000       16.3894000000       14.8201000000 O         0.0000000000         0.0000000000       201.1177100341     -251.7780688655      -83.9545851945
atom        13.6368000000       14.1688000000       14.5259000000 O         0.0000000000         0.0000000000       133.8684335132      291.4047057598       -3.5979349890
atom        14.1368000000       15.3789000000       14.5156000000 N         0.0000000000         0.0000000000      -238.6787491419      -48.1574248018       89.1253603529
atom        15.7833000000       15.4890000000       14.5865000000 N         0.0000000000         0.0000000000        56.6388028396     -220.0820794172       83.8944668129
energy     -1416.7763250204
charge 0
end
begin
comment generated by PY
lattice        30.0000000000         0.0000000000         0.0000000000
lattice         0.0000000000        30.0000000000         0.0000000000
lattice         0.0000000000         0.0000000000        30.0000000000