begin
comment generated by PY
lattice        30.0000000000         0.0000000000         0.0000000000
lattice         0.0000000000        30.0000000000         0.0000000000
lattice         0.0000000000         0.0000000000        30.0000000000
atom        12.7808000000       14.5001000000       15.8814000000 H         0.0000000000         0.0000000000       106.8335318263       41.5115629790      -71.3366349098
atom        17.0789000000       15.3240000000       15.7698000000 H         0.0000000000         0.0000000000      -118.5783948288        3.7471338171      -65.7200573155
atom        16.0738000000       16.5124000000       14.9657000000 H         0.0000000000         0.0000000000        -2.4879724206     -120.8840519564       23.7925349507
atom        13.2615000000       15.9343000000       15.0003000000 H         0.0000000000         0.0000000000        47.7623446542     -117.8989330761       28.7748128444
atom        13.9071000000       13.0681000000       14.2100000000 H         0.0000000000         0.0000000000       -12.1774020334      124.6769231671      -27.0395928634
atom        15.1679000000       13.9487000000       12.2436000000 H         0.0000000000         0.0000000000       -18.4417039542       70.2368218860      112.6101635757
atom        14.7727000000       15.6026000000       12.6958000000 H         0.0000000000         0.0000000000        23.5420259755     -108.9033117595       57.5958764312
atom        13.6095000000       14.9149000000       15.2711000000 C         0.0000000000         0.0000000000        32.8330263657        5.7452822298      -26.7314541629
atom        16.1367000000       15.4226000000       15.1879000000 C         0.0000000000         0.0000000000       -16.2999150377      -33.6384466131      -56.8063873573
atom        15.0147000000       14.6051000000       13.1287000000 C         0.0000000000         0.0000000000        31.9093608559        3.5449613431       80.9627499054
atom        15.7452000000       16.7871000000       17.7123000000 O         0.0000000000         0.0000000000      -257.7569737750     -178.5549079770     -123.5694922806
atom        13.5089000000       16.4873000000       17.6628000000 O         0.0000000000         0.0000000000       298.9196070007     -103.6768154794     -109.9384681846
atom        14.8741000000       15.0572000000       16.1386000000 N         0.0000000000         0.0000000000       -28.9028499844       96.4781707917     -128.9822962468
atom        13.7386000000       14.1194000000       13.9515000000 N         0.0000000000         0.0000000000       161.5592310306       50.4756473545      117.5393523716
atom        16.2703000000       14.7202000000       13.8975000000 N         0.0000000000         0.0000000000      -221.2662549262       91.3014924530       90.4554307899
atom        14.6998000000       16.1639000000       17.2699000000 N         0.0000000000         0.0000000000       -27.4477007486      175.8391597799       98.3932155125
energy     -2920.5761060277
charge 0
end
begin
comment generated by PY
lattice        30.0000000000         0.0000000000         0.0000000000
lattice         0.0000000000        30.0000000000         0.0000000000
lattice         0.0000000000         0.0000000000        30.0000000000
atom        12.7469000000       14.5250000000       15.8219000000 H         0.0000000000         0.0000000000       105.3570459718       49.6878044595      -74.8122735472
atom        16.9992000000       15.2442000000       15.9001000000 H         0.0000000000         0.0000000000      -112.3836301154       -9.8330710238      -81.9609861460
atom        16.1900000000       16.2640000000       14.7828000000 H         0.0000000000         0.0000000000       -22.5910789598     -102.5399080916       51.1210250109
atom        13.3140000000       16.0942000000       14.9564000000 H         0.0000000000         0.0000000000        31.8180110499     -136.2202902171       33.3115139958
atom        13.6984000000       13.2066000000       13.9637000000 H         0.0000000000         0.0000000000         9.8211594198      126.6489790835       -5.3599262368
atom        15.2459000000       13.8664000000       12.2076000000 H         0.0000000000         0.0000000000       -16.9494751264       89.8694614658      102.3625669721
atom        15.0311000000       15.6865000000       12.7145000000 H         0.0000000000         0.0000000000        11.6813828940     -126.0740190503       37.7162962685
atom        13.5853000000       14.9752000000       15.2248000000 C         0.0000000000         0.0000000000        37.5250048830       37.6817747503      -40.1364617730
atom        16.0949000000       15.2605000000       15.2294000000 C         0.0000000000         0.0000000000         7.2967414550       12.4484606026      -31.2742002235
atom        15.1415000000       14.6068000000       13.0445000000 C         0.0000000000         0.0000000000        30.4881994623       -3.7453590492      119.2573514742
atom        15.6050000000       17.0628000000       17.4164000000 O         0.0000000000         0.0000000000      -226.6040556907     -239.1600359473      -14.9554629260
atom        13.5848000000       16.2350000000       18.0340000000 O         0.0000000000         0.0000000000       284.6374199520      -34.1372528746     -184.7499598044
atom        14.8466000000       15.1343000000       16.1468000000 N         0.0000000000         0.0000000000        -7.4909027389       39.0309642727     -149.9308779320
atom        13.7251000000       14.2933000000       13.8534000000 N         0.0000000000         0.0000000000       130.6283199189       -3.7942841434      119.0831154238
atom        16.3335000000       14.5029000000       13.9293000000 N         0.0000000000         0.0000000000      -229.2355516954      117.9249193215       63.8975925207
atom        14.6859000000       16.1895000000       17.3482000000 N         0.0000000000         0.0000000000       -33.9977976195      182.2122625625       56.4311669229
energy     -2878.8618431285
charge 0
end
begin
comment generated by PY
lattice        30.0000000000         0.0000000000         0.0000000000
lattice         0.0000000000        30.0000000000         0.0000000000
lattice         0.0000000000         0.0000000000        30.0000000000
atom        12.6499000000       14.5852000000       15.5694000000 H         0.0000000000         0.0000000000       111.5247258914       64.7147327461      -37.5420401798
atom        17.1425000000       15.2293000000       16.0171000000 H         0.0000000000         0.0000000000      -110.6610360212      -16.4091182982      -94.8837075982
atom        16.2417000000       16.3094000000       15.0574000000 H         0.0000000000         0.0000000000       -15.0014983908     -104.8646331608       27.2130775032
atom        13.4178000000       16.1117000000       14.9378000000 H         0.0000000000         0.0000000000        17.5243255101     -119.1702642501       18.9550043334
atom        13.7537000000       13.1975000000       14.1480000000 H         0.0000000000         0.0000000000        -9.6294280108      130.4040514548      -27.8473599319
atom        15.2322000000       13.8904000000       12.3923000000 H         0.0000000000         0.0000000000        -7.8538250808       78.1659251184       95.2849706449
atom        14.9835000000       15.5888000000       12.7032000000 H         0.0000000000         0.0000000000        12.8369434919     -106.6690464965       59.6630086189
atom        13.5591000000       15.0622000000       15.1450000000 C         0.0000000000         0.0000000000        12.3001382517      -63.4662127563      -26.4240032450
atom        16.2485000000       15.2459000000       15.2604000000 C         0.0000000000         0.0000000000       -10.7824534300       14.9424597254     -103.9350574276
atom        15.1264000000       14.6072000000       13.1971000000 C         0.0000000000         0.0000000000        25.4888096764       12.7577477244       52.9992218448
atom        15.6181000000       17.0076000000       17.2547000000 O         0.0000000000         0.0000000000      -233.4740445737     -229.2190526500       11.8132569574
atom        13.6383000000       16.2750000000       18.0453000000 O         0.0000000000         0.0000000000       266.0333377146      -54.0715045423     -202.9619379495
atom        14.7432000000       14.9508000000       16.1956000000 N         0.0000000000         0.0000000000       -13.4265137590      104.8964049002     -115.1874900582
atom        13.6574000000       14.2699000000       13.8687000000 N         0.0000000000         0.0000000000       192.5199425228       37.8393185927      148.6294967776
atom        16.3428000000       14.7072000000       13.9714000000 N         0.0000000000         0.0000000000      -213.1787240131       62.7041201306      123.3388686916
atom        14.6614000000       16.1452000000       17.2907000000 N         0.0000000000         0.0000000000       -24.2210428401      187.4437917615       70.8843879578
energy     -2905.0478354202
charge 0
end
begin
comment generated by PY
lattice        30.0000000000         0.0000000000         0.0000000000
lattice         0.0000000000        30.0000000000         0.0000000000
lattice         0.0000000000         0.0000000000        30.0000000000
atom        12.6913000000       14.3915000000       15.8406000000 H         0.0000000000         0.0000000000       112.7421669575       59.5267812411      -64.6774477006
atom        17.2030000000       15.2025000000       15.7882000000 H         0.0000000000         0.0000000000      -132.6628841672        6.8076663374      -58.0168994754
atom        16.1630000000       16.4782000000       15.2047000000 H         0.0000000000         0.0000000000         1.5921371226     -122.8688902249       -2.6056732777
atom        13.0420000000       15.7420000000       14.7625000000 H         0.0000000000         0.0000000000        72.7625655610      -81.4622937438       64.9603881687
atom        13.8757000000       12.9782000000       14.0794000000 H         0.0000000000         0.0000000000       -17.2006584671      124.7696720646        8.0910351404
atom        15.0919000000       14.0843000000       12.1915000000 H         0.0000000000         0.0000000000         2.3839166980       64.0420657296      129.9571231038
atom        14.6315000000       15.6829000000       13.0813000000 H         0.0000000000         0.0000000000        50.3696312754     -117.9519629745       10.7330300578
atom        13.5264000000       14.8885000000       15.2343000000 C         0.0000000000         0.0000000000        15.6306856700      -69.1479668862      -68.4360188810
atom        16.2087000000       15.3694000000       15.2322000000 C         0.0000000000         0.0000000000       -26.7596083454        4.7604344804      -82.6042977810
atom        15.0612000000       14.6236000000       13.2117000000 C         0.0000000000         0.0000000000        12.1384579936       48.9572053564       60.8490542008
atom        15.7504000000       16.7101000000       17.6936000000 O         0.0000000000         0.0000000000      -236.4580431177     -121.3401545004     -183.9367754695
atom        13.5819000000       16.5138000000       17.7954000000 O         0.0000000000         0.0000000000       236.5493397568      -85.0161406307     -210.4883119359
atom        14.8190000000       15.0836000000       16.0857000000 N         0.0000000000         0.0000000000       -32.4593180149      108.8422191207      -98.5914587809
atom        13.6864000000       14.0505000000       13.9874000000 N         0.0000000000         0.0000000000       157.4556095905       57.4452893066      100.8515436278
atom        16.3137000000       14.8143000000       13.8635000000 N         0.0000000000         0.0000000000      -237.3364149120       46.2732674844      118.7155335681
atom        14.6686000000       16.2461000000       17.1001000000 N         0.0000000000         0.0000000000        21.2530453991       76.3622209000      275.1987123741
energy     -2870.9483104814
charge 0
end
begin
comment generated by PY
lattice        30.0000000000         0.0000000000         0.0000000000
lattice         0.0000000000        30.0000000000         0.0000000000
lattice         0.0000000000         0.0000000000        30.0000000000
atom        12.8838000000       14.3392000000       16.0522000000 H         0.0000000000         0.0000000000        96.9769700794       38.1219808099      -82.4887432029
atom        16.9789000000       15.2880000000       15.6314000000 H         0.0000000000         0.0000000000       -94.7817624373       18.3391110449      -49.2372434166
atom        16.0623000000       16.6386000000       15.0356000000 H         0.0000000000         0.0000000000        -9.3284414426     -135.4719814935       13.8040724540
atom        13.2156000000       15.7258000000       15.1000000000 H         0.0000000000         0.0000000000        57.3837866692     -107.9771987314       27.5583643778
atom        13.9590000000       12.8576000000       14.2561000000 H         0.0000000000         0.0000000000       -19.2924246655      146.5225416048      -28.2916558010
atom        15.0439000000       13.9953000000       12.2442000000 H         0.0000000000         0.0000000000       -10.9956733260       74.7525711142       98.7413442631
atom        14.7443000000       15.7096000000       12.7948000000 H         0.0000000000         0.0000000000        -0.6902848596     -120.4909716594       35.1436318786
atom        13.6357000000       14.7518000000       15.3558000000 C         0.0000000000         0.0000000000         4.1090576006       14.6921425214      -35.9293416060
atom        16.0641000000       15.4803000000       15.1585000000 C         0.0000000000         0.0000000000         3.6283421154      -15.4951549212      -37.4532018823
atom        14.9282000000       14.6520000000       13.0993000000 C         0.0000000000         0.0000000000        81.9787834107       10.9206256259       95.0322418082
atom        15.7361000000       16.5247000000       18.0607000000 O         0.0000000000         0.0000000000      -233.0018120310      -71.3507943253     -236.9817954838
atom        13.5641000000       16.7025000000       17.3234000000 O         0.0000000000         0.0000000000       309.7939846480     -119.1844644538      -47.9529067223
atom        14.9779000000       15.0506000000       16.2217000000 N         0.0000000000         0.0000000000       -35.1187502440      109.6090745775     -164.9542606770
atom        13.7090000000       13.9731000000       14.0347000000 N         0.0000000000         0.0000000000       149.1697467057       58.1147089505      124.7445980478
atom        16.2033000000       14.9119000000       13.7607000000 N         0.0000000000         0.0000000000      -233.8275132760       33.0955069268      115.6448421425
atom        14.7651000000       16.2533000000       17.1829000000 N         0.0000000000         0.0000000000       -66.0046770680       65.8027024090      172.6192768804
energy     -2876.0551896463
charge 0
end
begin
comment generated by PY
lattice        30.0000000000         0.0000000000         0.0000000000
lattice         0.0000000000        30.0000000000         0.0000000000
lattice         0.0000000000         0.0000000000        30.0000000000
atom        12.8485000000       14.5364000000       16.0233000000 H         0.0000000000         0.0000000000       116.2927455685       13.5912504697      -68.7410549539
atom        17.1038000000       15.2744000000       15.4989000000 H         0.0000000000         0.0000000000      -110.4313902279       31.9327003115      -46.8794097577
atom        16.3444000000       16.7010000000       14.8960000000 H         0.0000000000         0.0000000000       -38.4519242577     -123.0851352465       19.0236132675
atom        13.3512000000       15.8636000000       15.0892000000 H         0.0000000000         0.0000000000        41.5307019116     -132.9577527190       17.1922287701
atom        14.1908000000       12.9728000000       14.4395000000 H         0.0000000000         0.0000000000       -37.6068376728       96.5593674387      -33.8341010623
atom        14.9933000000       13.7848000000       12.3146000000 H         0.0000000000         0.0000000000       -17.5903358457       99.6223073273       94.1595942677
atom        14.3637000000       15.4751000000       12.7714000000 H         0.0000000000         0.0000000000        47.7183265440      -98.2442310218       35.2464917999
atom        13.7105000000       14.7792000000       15.3645000000 C         0.0000000000         0.0000000000        18.5587332786       77.6707038801      -32.2414879231
atom        16.1649000000       15.5902000000       15.0359000000 C         0.0000000000         0.0000000000        21.4319806558      -68.9540043728      -65.8328223147
atom        14.8305000000       14.5697000000       13.1035000000 C         0.0000000000         0.0000000000        39.1407395378      -26.7748022068       92.5150966643
atom        15.6286000000       16.3916000000       18.1676000000 O         0.0000000000         0.0000000000      -232.5953234992      -87.9207712024     -226.7127824340
atom        13.6246000000       16.8665000000       17.2823000000 O         0.0000000000         0.0000000000       251.2968842101     -210.9118277777       -6.9245056623
atom        14.9843000000       15.1280000000       16.1061000000 N         0.0000000000         0.0000000000       -70.2466203838       44.4561297004     -110.6278906420
atom        13.7624000000       13.8918000000       14.1198000000 N         0.0000000000         0.0000000000       172.1459350519      123.5688999604      101.3468355027
atom        16.2070000000       14.9471000000       13.7010000000 N         0.0000000000         0.0000000000      -212.6860478624       48.5108210215      137.0914432810
atom        14.6665000000       16.1357000000       17.2980000000 N         0.0000000000         0.0000000000        11.4921099307      212.9364944373       95.2178511968
energy     -2880.4708570521
charge 0
end
begin
comment generated by PY
lattice        30.0000000000         0.0000000000         0.0000000000
lattice         0.0000000000        30.0000000000         0.0000000000
lattice         0.0000000000         0.0000000000        30.0000000000
atom        12.9815000000       14.1737000000       16.0265000000 H         0.0000000000         0.0000000000        96.8628358840       46.3641157185      -65.5668835609
atom        17.1515000000       15.3082000000       15.6584000000 H         0.0000000000         0.0000000000      -129.0906256436       31.2600481609      -65.0859595445
atom        15.9845000000       16.6063000000       14.8871000000 H         0.0000000000         0.0000000000        13.5683068336     -123.0581045972       29.4634316896
atom        13.1631000000       15.6414000000       15.2268000000 H         0.0000000000         0.0000000000        72.3537829520     -108.3261936389       17.6160116245
atom        14.1181000000       12.9521000000       14.1416000000 H         0.0000000000         0.0000000000       -39.2158760884      131.9079559184      -12.6188931631
atom        14.9463000000       14.2800000000       12.0933000000 H         0.0000000000         0.0000000000        -7.8883680491       47.6463061677      132.5085851826
atom        14.5484000000       15.8049000000       12.9329000000 H         0.0000000000         0.0000000000        27.5183848032     -116.7276522303       33.2456741388
atom        13.7060000000       14.6820000000       15.4024000000 C         0.0000000000         0.0000000000         4.3325647390       50.3991789006      -49.4483697425
atom        16.1432000000       15.5244000000       15.1244000000 C         0.0000000000         0.0000000000       -23.0735559756      -81.8317897239      -42.8099481198
atom        14.8643000000       14.7628000000       13.1209000000 C         0.0000000000         0.0000000000        53.5461013151      -12.9067323453       76.0384776390
atom        15.6480000000       16.5439000000       18.0545000000 O         0.0000000000         0.0000000000      -213.3269435737      -96.9798949465     -240.8458528617
atom        13.5762000000       16.7480000000       17.3111000000 O         0.0000000000         0.0000000000       286.9684955776     -145.8840561198      -50.0636538929
atom        15.0117000000       15.0395000000       16.1497000000 N         0.0000000000         0.0000000000       -53.9910273186       79.1669703235     -134.0581398686
atom        13.7355000000       14.0066000000       14.0171000000 N         0.0000000000         0.0000000000       184.1414730464       55.5123879930      107.7927481309
atom        16.1778000000       14.7500000000       13.8378000000 N         0.0000000000         0.0000000000      -213.6744319837      109.3823265992       85.1410257546
atom        14.7434000000       16.2305000000       17.1979000000 N         0.0000000000         0.0000000000       -59.0307065182      134.0748668808      178.6916996544
energy     -2897.0978236200
charge 0
end
begin
comment generated by PY
lattice        30.0000000000         0.0000000000         0.0000000000
lattice         0.0000000000        30.0000000000         0.0000000000
lattice         0.0000000000         0.0000000000        30.0000000000
atom        12.8937000000       14.5666000000       15.9357000000 H         0.0000000000         0.0000000000        89.6881373940       58.5403245227      -85.7441845662
atom        17.1957000000       14.9683000000       15.7681000000 H         0.0000000000         0.0000000000      -119.9831947643       42.6755386153      -70.1063333023
atom        16.3151000000       16.4502000000       15.3787000000 H         0.0000000000         0.0000000000        -8.5573855006     -112.2058186072      -30.5977523376
atom        13.4826000000       15.9910000000       14.9079000000 H         0.0000000000         0.0000000000        12.9523945331     -114.9301903382       31.9574801989
atom        13.9081000000       13.0102000000       14.3747000000 H         0.0000000000         0.0000000000       -21.0350859986      129.5597885750      -30.9486886764
atom        15.1080000000       14.0457000000       12.1874000000 H         0.0000000000         0.0000000000       -13.6667818209       56.6588975078      120.8232623173
atom        14.7108000000       15.6309000000       12.8986000000 H         0.0000000000         0.0000000000        14.4007248377     -113.0821010157       25.6431659209
atom        13.6386000000       14.9794000000       15.2210000000 C         0.0000000000         0.0000000000        52.3696547263      -74.1097482936       -9.4138280786
atom        16.2396000000       15.3756000000       15.2199000000 C         0.0000000000         0.0000000000       -57.1577920764      -44.7703993604      -14.2842031037
atom        14.9771000000       14.5935000000       13.1465000000 C         0.0000000000         0.0000000000        59.5555340080       61.4401911385       95.5689750519
atom        15.7042000000       16.7542000000       17.7594000000 O         0.0000000000         0.0000000000      -239.0238692667     -185.3778731063     -132.4916469046
atom        13.4688000000       16.5039000000       17.5587000000 O         0.0000000000         0.0000000000       295.7517264764     -120.2887037613      -78.3727976327
atom        14.9710000000       15.0712000000       16.1249000000 N         0.0000000000         0.0000000000       -28.7527289420       94.5377268293     -104.3681042592
atom        13.6779000000       14.0510000000       14.0611000000 N         0.0000000000         0.0000000000       166.7353242835       89.6876573958      109.2834565015
atom        16.1888000000       14.8549000000       13.8197000000 N         0.0000000000         0.0000000000      -181.3097540673       30.2455395540      110.9972256669
atom        14.7161000000       16.1134000000       17.2682000000 N         0.0000000000         0.0000000000       -21.9668007617      201.4191534654       62.0542732038
energy     -2910.1626101284
charge 0
end
begin
comment generated by PY
lattice        30.0000000000         0.0000000000         0.0000000000
lattice         0.0000000000        30.0000000000         0.0000000000
lattice         0.0000000000         0.0000000000        30.0000000000
atom        12.7264000000       14.7119000000       15.6801000000 H         0.0000000000         0.0000000000       105.4088278530       33.3190794573      -76.7888195917
atom        17.0093000000       15.2240000000       15.9386000000 H         0.0000000000         0.0000000000      -105.6557311369       22.6993079426      -90.2825703036
atom        16.0612000000       16.3671000000       14.8311000000 H         0.0000000000         0.0000000000        19.2873060541      -94.1731820655       41.8002552129
atom        12.9863000000       15.9974000000       14.6517000000 H         0.0000000000         0.0000000000        90.1704421402      -90.5126631625       42.5113693262
atom        13.7982000000       13.1468000000       14.1358000000 H         0.0000000000         0.0000000000       -23.2281456294      133.3837944672      -29.5430718524
atom        15.3873000000       13.6609000000       12.3693000000 H         0.0000000000         0.0000000000       -37.5426622949       79.6006398356       98.2953149872
atom        15.0389000000       15.3563000000       12.5231000000 H         0.0000000000         0.0000000000         9.9599418507      -98.5128676027       75.3316188515
atom        13.5387000000       15.0928000000       15.0122000000 C         0.0000000000         0.0000000000       -48.1851575571      -42.5917909928      -21.4957262059
atom        16.1590000000       15.3878000000       15.2195000000 C         0.0000000000         0.0000000000       -70.6220941220      -52.0218353088      -50.7645670438
atom        15.1402000000       14.4220000000       13.1331000000 C         0.0000000000         0.0000000000        51.5840948496       42.6419407412       64.6120062529
atom        15.7021000000       16.9575000000       17.6523000000 O         0.0000000000         0.0000000000      -257.6142069371     -169.9067659107     -128.2662511907
atom        13.6444000000       16.1105000000       18.0481000000 O         0.0000000000         0.0000000000       245.4693883889       45.4795987483     -221.9079531053
atom        14.8174000000       15.2889000000       16.0464000000 N         0.0000000000         0.0000000000        14.5247923746       56.2857270276     -120.1156036790
atom        13.6353000000       14.2185000000       13.8149000000 N         0.0000000000         0.0000000000       190.6229942480        9.5937373481      148.1235962904
atom        16.2881000000       14.5518000000       14.0132000000 N         0.0000000000         0.0000000000      -210.3585889433      103.8118938534       54.1786253095
atom        14.6728000000       16.3022000000       17.2479000000 N         0.0000000000         0.0000000000        26.1783758010       20.9029156217      214.3123767418
energy     -2891.9582990853
charge 0
end
begin
comment generated by PY
lattice        30.0000000000         0.0000000000         0.0000000000
lattice         0.0000000000        30.0000000000         0.0000000000
lattice         0.0000000000         0.0000000000        30.0000000000
atom        12.7459000000       14.4404000000       15.7417000000 H         0.0000000000         0.0000000000       107.2667451107       46.9891486842      -62.2702607052
atom        17.1264000000       14.7475000000       15.9660000000 H         0.0000000000         0.0000000000      -133.7863195960       29.9183809709      -54.0086428616
atom        16.3708000000       16.1585000000       15.3036000000 H         0.0000000000         0.0000000000       -33.2897304429     -111.3696225827       11.9819844526
atom        12.9668000000       15.9312000000       15.2125000000 H         0.0000000000         0.0000000000        94.4694386289      -92.6073675400      -12.1585139049
atom        13.6806000000       13.2050000000       13.7748000000 H         0.0000000000         0.0000000000        25.5631713179      148.7058545678       16.5499161010
atom        15.1638000000       14.4350000000       12.0723000000 H         0.0000000000         0.0000000000         1.1925858094       15.5802137200      130.7523245573
atom        15.1394000000       15.8618000000       12.8321000000 H         0.0000000000         0.0000000000       -14.2585662917     -110.0537116872       52.1523633197
atom        13.5662000000       14.9978000000       15.2329000000 C         0.0000000000         0.0000000000         0.7444581723      -55.0167192379        9.3135329029
atom        16.1594000000       15.0939000000       15.4202000000 C         0.0000000000         0.0000000000        -8.9058959389        3.1647739492      -93.6202753718
atom        15.1177000000       14.7957000000       13.1127000000 C         0.0000000000         0.0000000000         7.1054697787       -8.0096947321       93.9955052249
atom        15.5745000000       17.1055000000       17.1458000000 O         0.0000000000         0.0000000000      -246.2233625224     -224.6238687258       23.4659386498
atom        13.7073000000       16.1875000000       18.1134000000 O         0.0000000000         0.0000000000       239.6385159148        8.3222422855     -247.4379513551
atom        14.7495000000       14.9937000000       16.1830000000 N         0.0000000000         0.0000000000         8.7359070577       89.9679233561     -135.7902057732
atom        13.7950000000       14.3365000000       13.8066000000 N         0.0000000000         0.0000000000       118.5694525605       30.4992690108       82.5979658535
atom        16.3012000000       14.5271000000       14.0153000000 N         0.0000000000         0.0000000000      -192.6053143948      114.2086893796       66.6650744955