begin
comment generated by PY
lattice        30.0000000000         0.0000000000         0.0000000000
lattice         0.0000000000        30.0000000000         0.0000000000
lattice         0.0000000000         0.0000000000        30.0000000000
atom        12.6316000000       14.3046000000       14.4080000000 H         0.0000000000         0.0000000000        50.0222862894       74.5354891568       85.7110863658
atom        13.0474000000       14.2780000000       16.1165000000 H         0.0000000000         0.0000000000         0.5474648877       78.5494810524      -92.4598907504
atom        15.0117000000       13.4468000000       13.8186000000 H         0.0000000000         0.0000000000        57.2984430422       83.3830868674       88.0372132226
atom        15.4354000000       13.4268000000       15.5194000000 H         0.0000000000         0.0000000000        13.3521575516       73.6264810664     -100.5758979322
atom        14.9909000000       15.9244000000       15.6403000000 H         0.0000000000         0.0000000000       -50.1331407005      -78.2326009570      -87.2144347964
atom        17.3903000000       15.1569000000       16.0947000000 H         0.0000000000         0.0000000000        32.5695620731      -35.6422451001     -102.3423805902
atom        18.8055000000       14.9395000000       14.9287000000 H         0.0000000000         0.0000000000      -119.2872010897      -19.5970056028       12.6670744884
atom        13.0531000000       14.9457000000       15.2200000000 C         0.0000000000         0.0000000000       -26.5873375689      102.5158639393        4.5062764972
atom        15.4839000000       14.0686000000       14.6106000000 C         0.0000000000         0.0000000000         6.6005925695       21.0852139591       19.5556566485
atom        17.7440000000       14.8101000000       15.1264000000 C         0.0000000000         0.0000000000      -146.2792793121      -90.3864017346     -135.0536939160
atom        12.1531000000       16.0735000000       15.4616000000 N         0.0000000000         0.0000000000       172.1360624083     -217.5746340607      -40.2490869228
atom        14.5749000000       15.2938000000       14.8534000000 N         0.0000000000         0.0000000000         1.3211035092     -118.5530582361       81.3017405035
atom        16.9504000000       14.2553000000       14.2510000000 N         0.0000000000         0.0000000000         8.4400953402      126.2907296501      266.1163571819
energy     -2219.0271466986
charge 0
end
begin
comment generated by PY
lattice        30.0000000000         0.0000000000         0.0000000000
lattice         0.0000000000        30.0000000000         0.0000000000
lattice         0.0000000000         0.0000000000        30.0000000000
atom        12.4141000000       14.0421000000       14.9287000000 H         0.0000000000         0.0000000000        57.0352161652       89.9684362805       36.6408498317
atom        13.1125000000       14.7217000000       16.4079000000 H         0.0000000000         0.0000000000       -23.3529489748       26.6386204181     -115.6119149578
atom        15.5578000000       13.4762000000       15.1489000000 H         0.0000000000         0.0000000000         8.8679001491      126.8803986271      -15.4611967036
atom        15.7643000000       14.8310000000       16.1883000000 H         0.0000000000         0.0000000000         1.8016765968      -19.7903234567     -127.0044980317
atom        14.5867000000       16.2951000000       14.6428000000 H         0.0000000000         0.0000000000       -18.5569805158     -100.2343938973       -1.0154968509
atom        17.8315000000       12.9025000000       15.0962000000 H         0.0000000000         0.0000000000         4.0147949258      116.4524863686      -28.9811332386
atom        19.0370000000       14.0664000000       14.4669000000 H         0.0000000000         0.0000000000      -114.6533345817        3.4646163069       22.8087952704
atom        12.8689000000       14.9325000000       15.3470000000 C         0.0000000000         0.0000000000      -119.4612910962      122.9654639624       -2.6311571591
atom        15.6936000000       14.5825000000       15.1001000000 C         0.0000000000         0.0000000000        -0.0849262826       -0.3817486793       15.0851668410
atom        18.0058000000       13.9372000000       14.7422000000 C         0.0000000000         0.0000000000      -164.1411265816      126.4954672470      -60.5262825397
atom        11.8689000000       15.8961000000       15.2525000000 N         0.0000000000         0.0000000000       226.2839470679     -210.3302399647       24.6889429095
atom        14.4321000000       15.2561000000       14.5927000000 N         0.0000000000         0.0000000000        81.9938123196      -22.0726840535      104.7582999943
atom        17.0601000000       14.8713000000       14.4963000000 N         0.0000000000         0.0000000000        60.2531808082     -260.0548760985      147.2499144346
energy     -2203.4360569285
charge 0
end
begin
comment generated by PY
lattice        30.0000000000         0.0000000000         0.0000000000
lattice         0.0000000000        30.0000000000         0.0000000000
lattice         0.0000000000         0.0000000000        30.0000000000
atom        12.9485000000       13.8947000000       15.5042000000 H         0.0000000000         0.0000000000        21.9016606388      119.3572457352      -23.6850871293
atom        13.1726000000       15.1923000000       16.4808000000 H         0.0000000000         0.0000000000       -13.0979910775       -7.7680402574     -102.7951705358
atom        15.3638000000       13.5193000000       15.2667000000 H         0.0000000000         0.0000000000        34.1762925568      131.1554369248       -2.3557818265
atom        15.8267000000       15.0121000000       16.2537000000 H         0.0000000000         0.0000000000       -12.8917940075      -47.5499858636     -111.3358976533
atom        14.7193000000       16.4580000000       14.9503000000 H         0.0000000000         0.0000000000       -52.2722367040      -95.6450635831      -12.6511941124
atom        17.7828000000       12.9181000000       15.0522000000 H         0.0000000000         0.0000000000         3.2069460478       85.6594335515      -55.3601487381
atom        18.9238000000       14.0506000000       14.0959000000 H         0.0000000000         0.0000000000      -126.0424633646      -19.8720787980       46.5221224876
atom        13.0844000000       14.9905000000       15.4330000000 C         0.0000000000         0.0000000000       -49.0139483536      107.0061036744      -56.3945350550
atom        15.6801000000       14.6173000000       15.2499000000 C         0.0000000000         0.0000000000        35.0030855538       20.2893532757      -22.9703822646
atom        17.9002000000       13.8282000000       14.5252000000 C         0.0000000000         0.0000000000      -140.9025457624      195.8972852732       33.7005847784
atom        11.8832000000       15.6786000000       14.9761000000 N         0.0000000000         0.0000000000       221.5377556944     -131.7247158901       93.4096110031
atom        14.3796000000       15.4868000000       14.7272000000 N         0.0000000000         0.0000000000        40.6175359346      -88.4747930340      144.3397524061
atom        16.9847000000       14.8212000000       14.5703000000 N         0.0000000000         0.0000000000        37.7772728434     -268.3301271297       69.5762997004
energy     -2204.5185507248
charge 0
end
begin
comment generated by PY
lattice        30.0000000000         0.0000000000         0.0000000000
lattice         0.0000000000        30.0000000000         0.0000000000
lattice         0.0000000000         0.0000000000        30.0000000000
atom        12.5448000000       14.3125000000       14.5413000000 H         0.0000000000         0.0000000000        63.6765142994       70.7768849076       70.2716994342
atom        13.0089000000       14.3113000000       16.1733000000 H         0.0000000000         0.0000000000        13.1049459469       73.0170571010      -90.0750574228
atom        14.9193000000       13.6789000000       13.7381000000 H         0.0000000000         0.0000000000        79.9984869236       55.0717335527       99.5495364374
atom        15.3768000000       13.5217000000       15.4964000000 H         0.0000000000         0.0000000000        25.2934359904       73.3744856105     -107.4985929591
atom        15.0754000000       16.0513000000       15.4986000000 H         0.0000000000         0.0000000000       -66.1756611597      -81.1849854261      -71.9232280269
atom        17.3712000000       15.2816000000       16.0681000000 H         0.0000000000         0.0000000000        25.4893741324      -68.9149794916      -99.6376696405
atom        18.7648000000       14.5686000000       15.2512000000 H         0.0000000000         0.0000000000       -95.5705934580       12.4134920757      -29.3059454310
atom        13.0525000000       14.9573000000       15.2815000000 C         0.0000000000         0.0000000000       -93.5747229707      117.6347034403        3.8551716421
atom        15.4915000000       14.1807000000       14.5855000000 C         0.0000000000         0.0000000000       -50.5388272976       17.0866405880      -11.3898690684
atom        17.7357000000       14.7066000000       15.1750000000 C         0.0000000000         0.0000000000      -133.5377925060      -60.8999641269     -127.5484421090
atom        12.1074000000       15.9886000000       15.4671000000 N         0.0000000000         0.0000000000       196.3098826935     -213.1794386388      -32.8718246485
atom        14.5858000000       15.3631000000       14.7994000000 N         0.0000000000         0.0000000000        43.7549082657     -108.9782666313       84.9667564026
atom        17.0043000000       14.2356000000       14.2093000000 N         0.0000000000         0.0000000000        -8.2298947387      113.7826600994      311.6083884506
energy     -2215.9474531308
charge 0
end
begin
comment generated by PY
lattice        30.0000000000         0.0000000000         0.0000000000
lattice         0.0000000000        30.0000000000         0.0000000000
lattice         0.0000000000         0.0000000000        30.0000000000
atom        12.6713000000       14.4575000000       14.2467000000 H         0.0000000000         0.0000000000        36.4784469195       52.2985119739       87.1340982915
atom        12.8531000000       14.1975000000       15.9722000000 H         0.0000000000         0.0000000000        17.4598714006       87.0053266811      -85.6249750047
atom        15.0067000000       13.5246000000       13.8226000000 H         0.0000000000         0.0000000000        56.4063183653       72.4505640995       91.2564714817
atom        15.4851000000       13.3691000000       15.4666000000 H         0.0000000000         0.0000000000        16.2978154177       77.6482423630      -82.2950542839
atom        15.0246000000       16.1122000000       15.6498000000 H         0.0000000000         0.0000000000       -46.6174694101     -121.9652506029      -82.8620499268
atom        17.3158000000       14.9917000000       16.0625000000 H         0.0000000000         0.0000000000        52.0799383152      -32.6312771389      -87.4180766962
atom        18.8859000000       14.6033000000       15.0946000000 H         0.0000000000         0.0000000000      -129.6497938779       23.2293224054      -11.5399186592
atom        12.9776000000       14.9453000000       15.1457000000 C         0.0000000000         0.0000000000       -52.1955164350      127.8009719778       44.2263355379
atom        15.4879000000       14.0666000000       14.6509000000 C         0.0000000000         0.0000000000        -4.4326403226       86.4669764508       -7.6594337248
atom        17.7749000000       14.7153000000       15.1363000000 C         0.0000000000         0.0000000000      -168.7660158942      -68.1927648743     -139.5689396672
atom        12.1315000000       16.0614000000       15.4724000000 N         0.0000000000         0.0000000000       171.5558872167     -231.0219443190      -60.9606458367
atom        14.6460000000       15.2596000000       14.9574000000 N         0.0000000000         0.0000000000         6.4878559501      -91.8598130154       34.6549005256
atom        16.9408000000       14.4008000000       14.1720000000 N         0.0000000000         0.0000000000        44.8963973546       18.7713570596      300.6566479628
energy     -2200.0864146200
charge 0
end
begin
comment generated by PY
lattice        30.0000000000         0.0000000000         0.0000000000
lattice         0.0000000000        30.0000000000         0.0000000000
lattice         0.0000000000         0.0000000000        30.0000000000
atom        12.7054000000       14.8220000000       13.9543000000 H         0.0000000000         0.0000000000        39.7740802852       29.0581567177      109.6144334534
atom        12.6974000000       14.0585000000       15.4822000000 H         0.0000000000         0.0000000000        30.6507038167      111.0559888201      -44.3082592988
atom        14.8978000000       13.5559000000       13.7804000000 H         0.0000000000         0.0000000000        71.5480378200       81.3876431502       95.6782360027
atom        15.3617000000       13.2876000000       15.3685000000 H         0.0000000000         0.0000000000        36.3329358271       83.5520744484      -76.1108405261
atom        14.7991000000       15.7946000000       16.1228000000 H         0.0000000000         0.0000000000       -21.3649819687      -89.0299574122     -113.2906347715
atom        17.5482000000       15.2980000000       16.0044000000 H         0.0000000000         0.0000000000        13.8960976665      -34.9856578737     -110.2613234783
atom        18.8551000000       14.8378000000       14.7232000000 H         0.0000000000         0.0000000000      -123.0547671440       14.5262975647       32.9769143496
atom        12.9817000000       15.0360000000       15.0004000000 C         0.0000000000         0.0000000000       -38.3403405179       99.0748978395       65.9113812791
atom        15.4787000000       14.0799000000       14.6380000000 C         0.0000000000         0.0000000000       -42.2652136002      -13.8472947506       28.2534770361
atom        17.7873000000       14.9139000000       15.0192000000 C         0.0000000000         0.0000000000       -98.9798643590     -173.4037472554     -142.6364470129
atom        12.1453000000       16.0797000000       15.4975000000 N         0.0000000000         0.0000000000       168.5077218523     -220.3300886438      -98.9517936883
atom        14.5880000000       15.1648000000       15.2185000000 N         0.0000000000         0.0000000000       -35.6761978870      -73.9173420237      -24.1243572802
atom        17.0057000000       14.1892000000       14.1846000000 N         0.0000000000         0.0000000000        -1.0275348514      186.8589494187      277.2492369958
energy     -2178.2785379914
charge 0
end
begin
comment generated by PY
lattice        30.0000000000         0.0000000000         0.0000000000
lattice         0.0000000000        30.0000000000         0.0000000000
lattice         0.0000000000         0.0000000000        30.0000000000
atom        12.6793000000       14.1781000000       14.5849000000 H         0.0000000000         0.0000000000        48.4349969991       91.0284104202       86.0855606504
atom        13.4191000000       14.4338000000       16.2360000000 H         0.0000000000         0.0000000000       -38.2235997555       59.7673983707      -90.7994134195
atom        14.9696000000       13.8344000000       13.5249000000 H         0.0000000000         0.0000000000        81.4325216328       28.8358136237      116.8935516324
atom        15.2468000000       13.4744000000       15.3102000000 H         0.0000000000         0.0000000000        38.5410884122       76.9900989787      -89.5773138856
atom        15.0027000000       16.2149000000       15.1249000000 H         0.0000000000         0.0000000000       -60.2867661022      -99.2761859394      -42.8000719814
atom        17.3893000000       14.8459000000       16.2083000000 H         0.0000000000         0.0000000000        42.6633276889      -37.8512321517      -91.9576331728
atom        18.7790000000       14.8246000000       14.9627000000 H         0.0000000000         0.0000000000      -104.5949297305      -39.4519879328       34.1281419289
atom        13.1111000000       14.9697000000       15.3384000000 C         0.0000000000         0.0000000000       -36.5111469633       83.1791464782      -34.9289757373
atom        15.4983000000       14.1871000000       14.5013000000 C         0.0000000000         0.0000000000       -46.5589569811       36.2918170071      -29.4762641388
atom        17.7744000000       14.5668000000       15.2471000000 C         0.0000000000         0.0000000000      -154.1834806214       34.1924449766     -177.5216791561
atom        12.0707000000       15.9812000000       15.5424000000 N         0.0000000000         0.0000000000       205.7453072797     -196.6996673628      -34.9973081525
atom        14.5197000000       15.3480000000       14.6773000000 N         0.0000000000         0.0000000000        40.9964104924      -68.3427068315       96.3793427782
atom        16.9874000000       14.3563000000       14.2760000000 N         0.0000000000         0.0000000000       -17.4548554116       31.3368303630      258.5719495933
energy     -2218.5368308936
charge 0
end
begin
comment generated by PY
lattice        30.0000000000         0.0000000000         0.0000000000
lattice         0.0000000000        30.0000000000         0.0000000000
lattice         0.0000000000         0.0000000000        30.0000000000
atom        12.8761000000       15.0476000000       13.8453000000 H         0.0000000000         0.0000000000        13.0843065494       15.5138538312      114.5059320047
atom        12.5845000000       14.0005000000       15.1108000000 H         0.0000000000         0.0000000000        49.6493298801      123.3503877874       -5.6939078386
atom        15.0709000000       13.4268000000       13.8005000000 H         0.0000000000         0.0000000000        52.9104092644       74.3876784672      105.1410364864
atom        15.6624000000       13.2197000000       15.3964000000 H         0.0000000000         0.0000000000       -16.9210426613       74.1816606066      -56.8426909426
atom        15.0532000000       15.8095000000       15.7719000000 H         0.0000000000         0.0000000000       -71.0423505063      -66.5823177527      -59.0884813474
atom        17.6463000000       15.0405000000       16.0297000000 H         0.0000000000         0.0000000000        -3.7993837057       10.3518894087     -106.7523944365
atom        18.8285000000       15.0082000000       14.6935000000 H         0.0000000000         0.0000000000      -122.5255044196       -6.8899089454       16.0662735374
atom        13.0019000000       15.0764000000       14.9361000000 C         0.0000000000         0.0000000000         3.1187174010       72.6860431759       47.4146779059
atom        15.5368000000       13.9608000000       14.6856000000 C         0.0000000000         0.0000000000        34.2549098349       25.1005105669      -34.2728408860
atom        17.7670000000       14.9391000000       14.9713000000 C         0.0000000000         0.0000000000       -99.1989969557     -193.0251844848      -67.5444039238
atom        12.1367000000       16.1098000000       15.5811000000 N         0.0000000000         0.0000000000       158.6849373970     -198.0581224139     -122.6045658151
atom        14.5313000000       15.1357000000       15.1543000000 N         0.0000000000         0.0000000000         1.1326486353      -93.9744771051      -34.1840979129
atom        16.9600000000       14.2412000000       14.2769000000 N         0.0000000000         0.0000000000         0.6515592866      162.9572537975      203.8562201079
energy     -2212.8482587725
charge 0
end
begin
comment generated by PY
lattice        30.0000000000         0.0000000000         0.0000000000
lattice         0.0000000000        30.0000000000         0.0000000000
lattice         0.0000000000         0.0000000000        30.0000000000
atom        12.6103000000       14.1788000000       14.7169000000 H         0.0000000000         0.0000000000        65.0935802663       87.3691838176       50.7516702054
atom        13.1490000000       14.3254000000       16.2795000000 H         0.0000000000         0.0000000000        14.6489083918       77.3972587752     -100.9957169299
atom        14.8313000000       13.4675000000       13.7443000000 H         0.0000000000         0.0000000000        81.5838582426      105.6170956544       57.2736036248
atom        15.1010000000       13.5778000000       15.2832000000 H         0.0000000000         0.0000000000        50.4998144113       80.7121322896      -68.1360574969
atom        14.9883000000       16.3582000000       14.9308000000 H         0.0000000000         0.0000000000       -61.0460857759     -117.0730492672      -29.8697714774
atom        17.4189000000       15.0039000000       16.2391000000 H         0.0000000000         0.0000000000        36.9121625197      -61.9166751153      -97.9148515001
atom        18.8029000000       14.7933000000       15.0707000000 H         0.0000000000         0.0000000000       -97.6348277232      -41.0768400486       18.0836167885
atom        13.1389000000       14.9538000000       15.3091000000 C         0.0000000000         0.0000000000      -118.0645252514      102.2274367189       15.9052609003
atom        15.3689000000       14.2420000000       14.4642000000 C         0.0000000000         0.0000000000       -73.5739570179       -8.5179196494       46.7384292550
atom        17.7897000000       14.5534000000       15.2733000000 C         0.0000000000         0.0000000000      -118.6266962110       68.5176070476     -115.0771238702
atom        12.1036000000       15.9147000000       15.6078000000 N         0.0000000000         0.0000000000       208.3523176835     -191.3416706238      -55.1011940803
atom        14.5079000000       15.4328000000       14.5692000000 N         0.0000000000         0.0000000000        30.8013598971     -130.0310678338       91.4309165310
atom        17.0820000000       14.3232000000       14.3308000000 N         0.0000000000         0.0000000000       -18.9440333118       28.1162682349      186.9112211103
energy     -2190.6635388664
charge 0
end
begin
comment generated by PY
lattice        30.0000000000         0.0000000000         0.0000000000
lattice         0.0000000000        30.0000000000         0.0000000000
lattice         0.0000000000         0.0000000000        30.0000000000
atom        12.6463000000       15.2402000000       13.8563000000 H         0.0000000000         0.0000000000        38.8551871639      -12.8004525494       91.4953704849
atom        12.5307000000       13.9750000000       15.0469000000 H         0.0000000000         0.0000000000        51.1691135128      120.4616071281      -11.8465799393
atom        14.7931000000       13.6391000000       14.0417000000 H         0.0000000000         0.0000000000        87.4812020559       58.0258078712       59.8230259057
atom        15.4838000000       13.3307000000       15.4872000000 H         0.0000000000         0.0000000000        11.3204055092       91.6172394390      -68.5322436477
atom        15.0528000000       15.7864000000       16.0313000000 H         0.0000000000         0.0000000000       -71.9975994143      -61.2665697746      -95.4854662728
atom        17.4754000000       15.4118000000       15.7640000000 H         0.0000000000         0.0000000000        37.2322283568      -79.5954614250      -69.8550900501
atom        18.9285000000       14.9616000000       14.7410000000 H         0.0000000000         0.0000000000      -123.9755713879      -42.6021261766       16.4845272536
atom        12.8836000000       15.0546000000       14.8654000000 C         0.0000000000         0.0000000000      -105.1128312575      135.5700992292      126.3871766808
atom        15.4385000000       14.1172000000       14.7568000000 C         0.0000000000         0.0000000000       -74.2930795506       35.5052602550       27.2157759527
atom        17.8240000000       14.7358000000       14.9651000000 C         0.0000000000         0.0000000000       -68.6281815790       63.5523991929      -56.8800296230
atom        12.1537000000       15.9536000000       15.5921000000 N         0.0000000000         0.0000000000       153.2062431525     -209.2184313098     -161.2947851060
atom        14.6106000000       15.2803000000       15.1553000000 N         0.0000000000         0.0000000000        90.3195384936     -144.6641216421      -13.5258177665
atom        17.0585000000       14.2552000000       14.2469000000 N         0.0000000000         0.0000000000       -25.5770750552       45.4143967015      156.0132361278
energy     -2226.9903605870
charge 0
end
begin
comment generated by PY
lattice        30.0000000000         0.0000000000         0.0000000000
lattice         0.0000000000        30.0000000000         0.0000000000
lattice         0.0000000000         0.0000000000        30.0000000000
atom        12.6117000000       14.1986000000       14.5982000000 H         0.0000000000         0.0000000000        55.6398412684       82.7496877234       65.6272746138
atom        13.1061000000       14.4334000000       16.2166000000 H         0.0000000000         0.0000000000         0.8924129822       57.3554772342      -93.6541718116
atom        15.3032000000       13.4588000000       14.0215000000 H         0.0000000000         0.0000000000        18.2870297759       93.2804977965       70.2018302356
atom        15.5510000000       13.9723000000       15.7198000000 H         0.0000000000         0.0000000000        14.0356359266       22.1633468628     -116.2069939383
atom        14.8414000000       16.3550000000       15.1043000000 H         0.0000000000         0.0000000000       -55.3305021208     -116.0800468969      -35.3381802617
atom        17.6356000000       14.0682000000       16.1577000000 H         0.0000000000         0.0000000000        11.3306906016       33.8683103877     -102.6787137651
atom        18.9714000000       14.3987000000       14.9956000000 H         0.0000000000         0.0000000000      -129.2622875727        2.6142674292       -0.6269146848
atom        13.0731000000       14.9394000000       15.2600000000 C         0.0000000000         0.0000000000       -34.9566928020      112.8064199410      -11.6761373596
atom        15.5887000000       14.2600000000       14.6687000000 C         0.0000000000         0.0000000000        33.2284700185       24.4462884146       25.8242002437
atom        17.8671000000       14.3662000000       15.1443000000 C         0.0000000000         0.0000000000      -123.6895115571       -7.9803155034     -124.8531224787
atom        11.9861000000       15.9772000000       15.4832000000 N         0.0000000000         0.0000000000       189.2019494952     -179.5165671581      -34.0942483808
atom        14.4335000000       15.4100000000       14.7283000000 N         0.0000000000         0.0000000000         4.1485064197      -86.6912701643       73.2112806870
atom        16.9954000000       14.4996000000       14.2344000000 N         0.0000000000         0.0000000000        16.4744706250      -39.0163321879      284.2634169005
energy     -2225.1647356035
charge 0
end
begin
comment generated by PY
lattice        30.0000000000         0.0000000000         0.0000000000
lattice         0.0000000000        30.0000000000         0.0000000000
lattice         0.0000000000         0.0000000000        30.0000000000
atom        12.8234000000       14.0164000000       15.1286000000 H         0.0000000000         0.0000000000        31.9930098439       97.4547094271       20.3835324579
atom        13.3141000000       15.1080000000       16.4406000000 H         0.0000000000         0.0000000000       -32.4967940005       -8.0620498714     -120.0129469221
atom        15.4783000000       13.5108000000       15.1986000000 H         0.0000000000         0.0000000000         8.9679208589      111.2998058679      -10.0964611166
atom        15.7599000000       14.7784000000       16.3484000000 H         0.0000000000         0.0000000000       -15.0809353043      -20.6097703592     -129.9704326705
atom        14.6617000000       16.4702000000       14.9842000000 H         0.0000000000         0.0000000000       -21.1521209598     -140.1552561893      -38.7867095277
atom        17.4082000000       12.8809000000       14.5530000000 H         0.0000000000         0.0000000000        51.1158449677       97.8001782848      -27.3740989305
atom        18.8687000000       14.0454000000       14.1083000000 H         0.0000000000         0.0000000000      -114.7137774564      -16.7392516643       31.9528534370
atom        13.0815000000       15.0251000000       15.3376000000 C         0.0000000000         0.0000000000       -57.7055441556       69.1955454966      -19.6340554169
atom        15.6435000000       14.5646000000       15.2309000000 C         0.0000000000         0.0000000000        43.9425784572       45.4623323064       28.9385338570
atom        17.8418000000       13.8607000000       14.3876000000 C         0.0000000000         0.0000000000      -167.4720913352      175.8499050734      110.8268470572
atom        11.8250000000       15.7276000000       15.0885000000 N         0.0000000000         0.0000000000       248.1572554807     -125.3423573846       48.3399706487
atom        14.4755000000       15.3783000000       14.6824000000 N         0.0000000000         0.0000000000        21.9161794386       -8.6197859234      167.8566421098