begin
comment generated by PY
lattice        30.0000000000         0.0000000000         0.0000000000
lattice         0.0000000000        30.0000000000         0.0000000000
lattice         0.0000000000         0.0000000000        30.0000000000
atom        16.4897000000       14.5543000000       15.6210000000 H         0.0000000000         0.0000000000      -103.4680512208       45.8624336078      -42.7157847491
atom        15.7890000000       15.6558000000       14.3079000000 H         0.0000000000         0.0000000000       -20.1612252879      -68.3811640644       91.7421383845
atom        13.6149000000       15.3185000000       15.0939000000 H         0.0000000000         0.0000000000       100.7587514281      -53.8168952628       53.4997256458
atom        15.6105000000       15.0124000000       15.1694000000 C         0.0000000000         0.0000000000      -203.4762967337      -22.5343182029       61.8954782583
atom        14.4098000000       14.7983000000       15.6396000000 N         0.0000000000         0.0000000000       226.3475448748       98.8700669828     -164.4206575396
energy      -837.7786985280
charge 0
end
begin
comment generated by PY
lattice        30.0000000000         0.0000000000         0.0000000000
lattice         0.0000000000        30.0000000000         0.0000000000
lattice         0.0000000000         0.0000000000        30.0000000000
atom        16.4530000000       14.5055000000       15.6330000000 H         0.0000000000         0.0000000000       -99.3385879699       56.6289551436      -45.8683512525
atom        15.8433000000       15.5877000000       14.3490000000 H         0.0000000000         0.0000000000       -27.6006221193      -39.9909369317       67.1962342295
atom        13.5983000000       15.3282000000       15.1216000000 H         0.0000000000         0.0000000000       103.2870224931      -56.1633923410       48.9361891613
atom        15.6075000000       15.0281000000       15.1666000000 C         0.0000000000         0.0000000000      -195.7212955417      -73.8833337538       93.6345528745
atom        14.4123000000       14.7924000000       15.6362000000 N         0.0000000000         0.0000000000       219.3741831377      113.4087078830     -163.8987019522
energy      -843.5302500287
charge 0
end
begin
comment generated by PY
lattice        30.0000000000         0.0000000000         0.0000000000
lattice         0.0000000000        30.0000000000         0.0000000000
lattice         0.0000000000         0.0000000000        30.0000000000
atom        16.3931000000       14.6203000000       15.7069000000 H         0.0000000000         0.0000000000       -77.0323120893       29.7864220896      -56.0047362447
atom        15.8488000000       15.4975000000       14.3115000000 H         0.0000000000         0.0000000000       -25.1176704762      -21.0076649134       57.1086213670
atom        13.5981000000       15.3963000000       15.2280000000 H         0.0000000000         0.0000000000        99.1897883644      -71.9864426840       25.6623870323
atom        15.6121000000       15.0234000000       15.1494000000 C         0.0000000000         0.0000000000      -219.1962422478      -69.3156581809      120.7257141381
atom        14.4122000000       14.7899000000       15.6407000000 N         0.0000000000         0.0000000000       222.1561595094      132.5233667492     -147.4918862927
energy      -846.3519588620
charge 0
end
begin
comment generated by PY
lattice        30.0000000000         0.0000000000         0.0000000000
lattice         0.0000000000        30.0000000000         0.0000000000
lattice         0.0000000000         0.0000000000        30.0000000000
atom        16.3263000000       14.5063000000       15.6165000000 H         0.0000000000         0.0000000000       -49.0888692005       40.7590062557      -28.2481498324
atom        15.8150000000       15.5181000000       14.2706000000 H         0.0000000000         0.0000000000       -21.4355807520      -34.0307947567       91.2200399804
atom        13.5681000000       15.3214000000       15.2126000000 H         0.0000000000         0.0000000000       107.3845105478      -54.8577713294       29.1860168147
atom        15.6090000000       15.0360000000       15.1767000000 C         0.0000000000         0.0000000000      -244.0752854608      -68.8926966122       39.6971281604
atom        14.4242000000       14.7910000000       15.6278000000 N         0.0000000000         0.0000000000       207.2150248656      117.0221333821     -131.8550351231
energy      -855.1636994254
charge 0
end
begin
comment generated by PY
lattice        30.0000000000         0.0000000000         0.0000000000
lattice         0.0000000000        30.0000000000         0.0000000000
lattice         0.0000000000         0.0000000000        30.0000000000
atom        16.3855000000       14.6225000000       15.6999000000 H         0.0000000000         0.0000000000       -68.5814507082       26.0529464102      -50.0408947374
atom        15.8254000000       15.5663000000       14.2003000000 H         0.0000000000         0.0000000000       -25.0266027737      -54.4552076638      111.9289786186
atom        13.5605000000       15.3525000000       15.2991000000 H         0.0000000000         0.0000000000       104.6265013894      -61.8404049349       10.9506255925
atom        15.6076000000       15.0161000000       15.1647000000 C         0.0000000000         0.0000000000      -229.8534972669      -23.6367554182       45.5699480709
atom        14.4210000000       14.7942000000       15.6309000000 N         0.0000000000         0.0000000000       218.8350493593      113.8794216067     -118.4088344841
energy      -841.8203584243
charge 0
end
begin
comment generated by PY
lattice        30.0000000000         0.0000000000         0.0000000000
lattice         0.0000000000        30.0000000000         0.0000000000
lattice         0.0000000000         0.0000000000        30.0000000000
atom        16.4662000000       14.5453000000       15.6228000000 H         0.0000000000         0.0000000000       -97.5957370985       47.9697921995      -43.0122036576
atom        15.8498000000       15.6342000000       14.2575000000 H         0.0000000000         0.0000000000       -31.5282160860      -62.5512144176      101.3842598939
atom        13.5500000000       15.2960000000       15.1895000000 H         0.0000000000         0.0000000000       110.0280920380      -50.7314941703       35.9507859524
atom        15.6158000000       15.0268000000       15.1635000000 C         0.0000000000         0.0000000000      -207.5012392612      -39.9328115641       56.2444734585
atom        14.4071000000       14.7897000000       15.6412000000 N         0.0000000000         0.0000000000       226.5965004077      105.2456279525     -150.5673156472
energy      -829.5754436753
charge 0
end
begin
comment generated by PY
lattice        30.0000000000         0.0000000000         0.0000000000
lattice         0.0000000000        30.0000000000         0.0000000000
lattice         0.0000000000         0.0000000000        30.0000000000
atom        16.4657000000       14.5129000000       15.6515000000 H         0.0000000000         0.0000000000      -103.1354557509       58.9188563753      -53.2136943030
atom        15.8494000000       15.6006000000       14.2890000000 H         0.0000000000         0.0000000000       -32.4195586709      -49.0783432480       88.7041842207
atom        13.5601000000       15.3178000000       15.1897000000 H         0.0000000000         0.0000000000       110.2761501600      -57.5939433408       38.0995862274
atom        15.6026000000       15.0386000000       15.1597000000 C         0.0000000000         0.0000000000      -186.6862707342      -73.6375935485       82.1546846894
atom        14.4178000000       14.7828000000       15.6402000000 N         0.0000000000         0.0000000000       211.9651349961      121.3909237621     -155.7448838951
energy      -834.7342781817
charge 0
end
begin
comment generated by PY
lattice        30.0000000000         0.0000000000         0.0000000000
lattice         0.0000000000        30.0000000000         0.0000000000
lattice         0.0000000000         0.0000000000        30.0000000000
atom        16.5252000000       14.5558000000       15.7124000000 H         0.0000000000         0.0000000000      -113.9463610821       50.1187838415      -66.6371974326
atom        15.8905000000       15.6776000000       14.3333000000 H         0.0000000000         0.0000000000       -40.7775249505      -66.4101611275       79.4711985365
atom        13.5920000000       15.3141000000       15.1283000000 H         0.0000000000         0.0000000000       101.1265014755      -56.1375144165       50.1877768207
atom        15.6066000000       15.0257000000       15.1411000000 C         0.0000000000         0.0000000000      -171.8683720996      -42.6657035287      121.5194068805
atom        14.4049000000       14.7855000000       15.6531000000 N         0.0000000000         0.0000000000       225.4651566567      115.0946252312     -184.5407848051
energy      -819.0026890318
charge 0
end
begin
comment generated by PY
lattice        30.0000000000         0.0000000000         0.0000000000
lattice         0.0000000000        30.0000000000         0.0000000000
lattice         0.0000000000         0.0000000000        30.0000000000
atom        16.4875000000       14.4339000000       15.6533000000 H         0.0000000000         0.0000000000      -106.0873807978       74.9691180592      -54.6436544814
atom        15.8230000000       15.7201000000       14.2823000000 H         0.0000000000         0.0000000000       -26.5383559629      -79.4621795854      101.6682970123
atom        13.6346000000       15.2869000000       15.0609000000 H         0.0000000000         0.0000000000        94.3378425427      -47.8023874607       62.5365732989
atom        15.5991000000       15.0300000000       15.1694000000 C         0.0000000000         0.0000000000      -181.3078794669      -54.5081473616       71.5150946773
atom        14.4158000000       14.7894000000       15.6414000000 N         0.0000000000         0.0000000000       219.5959967454      106.8034963485     -181.0759335678
energy      -824.2240185002
charge 0
end
begin
comment generated by PY
lattice        30.0000000000         0.0000000000         0.0000000000
lattice         0.0000000000        30.0000000000         0.0000000000
lattice         0.0000000000         0.0000000000        30.0000000000
atom        16.5122000000       14.5716000000       15.6489000000 H         0.0000000000         0.0000000000      -110.9476739834       44.0418942986      -50.1889654939
atom        15.8190000000       15.7578000000       14.2955000000 H         0.0000000000         0.0000000000       -28.3426204933      -92.1936039799       94.8000863024
atom        13.6531000000       15.2779000000       15.0255000000 H         0.0000000000         0.0000000000        92.0363424935      -46.1932300389       68.4998615279
atom        15.5977000000       14.9987000000       15.1621000000 C         0.0000000000         0.0000000000      -176.4280271001        8.5063392944       77.1257901215
atom        14.4142000000       14.8044000000       15.6496000000 N         0.0000000000         0.0000000000       223.6824790832       85.8385004258     -190.2370724579
energy      -827.9914444724
charge 0
end
begin
comment generated by PY
lattice        30.0000000000         0.0000000000         0.0000000000
lattice         0.0000000000        30.0000000000         0.0000000000
lattice         0.0000000000         0.0000000000        30.0000000000
atom        16.4891000000       14.5693000000       15.6013000000 H         0.0000000000         0.0000000000       -99.8365267389       41.0547423338      -35.5255768846
atom        15.7836000000       15.7165000000       14.3338000000 H         0.0000000000         0.0000000000       -20.7244232666      -86.0680510701       87.6009922725
atom        13.6646000000       15.2581000000       14.9801000000 H         0.0000000000         0.0000000000        91.1972577812      -40.8642278907       76.1378032869
atom        15.6076000000       14.9963000000       15.1677000000 C         0.0000000000         0.0000000000      -199.3161385420        9.7522996765       64.2966979288
atom        14.4091000000       14.8110000000       15.6487000000 N         0.0000000000         0.0000000000       228.6800307662       76.1252369505     -192.5104166036
energy      -837.1735098392
charge 0
end
begin
comment generated by PY
lattice        30.0000000000         0.0000000000         0.0000000000
lattice         0.0000000000        30.0000000000         0.0000000000
lattice         0.0000000000         0.0000000000        30.0000000000
atom        16.4795000000       14.5416000000       15.5960000000 H         0.0000000000         0.0000000000       -95.6530414136       48.6929084663      -37.0102129648
atom        15.6750000000       15.6662000000       14.3659000000 H         0.0000000000         0.0000000000         5.5492177528      -69.8447391304       74.1142596119
atom        13.6888000000       15.2885000000       14.9495000000 H         0.0000000000         0.0000000000        89.6204503765      -47.6983219840       83.1999422367
atom        15.6144000000       15.0016000000       15.1721000000 C         0.0000000000         0.0000000000      -225.2834200286      -13.8585530171       70.3025810721
atom        14.4100000000       14.8099000000       15.6452000000 N         0.0000000000         0.0000000000       225.7668933129       82.7087056652     -190.6066699559
energy      -842.5316733885
charge 0
end
begin
comment generated by PY
lattice        30.0000000000         0.0000000000         0.0000000000
lattice         0.0000000000        30.0000000000         0.0000000000
lattice         0.0000000000         0.0000000000        30.0000000000
atom        16.5584000000       14.6301000000       15.6129000000 H         0.0000000000         0.0000000000      -115.7071908899       29.9847476193      -41.4621994528
atom        15.7294000000       15.6596000000       14.4405000000 H         0.0000000000         0.0000000000        -5.4067745479      -46.9082756055       38.9108311188
atom        13.6849000000       15.3506000000       14.9987000000 H         0.0000000000         0.0000000000        88.0750900288      -58.6372811808       70.5536819099
atom        15.6245000000       14.9970000000       15.1626000000 C         0.0000000000         0.0000000000      -210.4553708387      -16.8678059466      115.3037142197
atom        14.3921000000       14.8035000000       15.6433000000 N         0.0000000000         0.0000000000       243.4940462477       92.4286151135     -183.3052277956
energy      -834.3761682814
charge 0
end
begin
comment generated by PY
lattice        30.0000000000         0.0000000000         0.0000000000
lattice         0.0000000000        30.0000000000         0.0000000000
lattice         0.0000000000         0.0000000000        30.0000000000
atom        16.5283000000       14.5757000000       15.5147000000 H         0.0000000000         0.0000000000      -103.9463428731       38.6351371976      -12.6750843753
atom        15.7407000000       15.5305000000       14.3543000000 H         0.0000000000         0.0000000000       -10.0305712496      -26.0866388974       50.4345747763
atom        13.6516000000       15.3028000000       15.0076000000 H         0.0000000000         0.0000000000        94.7630550639      -50.0478446492       66.1962859865
atom        15.6237000000       15.0140000000       15.1821000000 C         0.0000000000         0.0000000000      -222.2813907596      -54.7676456439       62.0094529428
atom        14.3965000000       14.8054000000       15.6391000000 N         0.0000000000         0.0000000000       241.4961498185       92.2669589323     -165.9655393304
energy      -842.7062119528
charge 0
end
begin
comment generated by PY
lattice        30.0000000000         0.0000000000         0.0000000000
lattice         0.0000000000        30.0000000000         0.0000000000
lattice         0.0000000000         0.0000000000        30.0000000000
atom        16.4973000000       14.6161000000       15.5661000000 H         0.0000000000         0.0000000000       -89.8286063804       26.0815319412      -23.9359625953
atom        15.6907000000       15.6472000000       14.3460000000 H         0.0000000000         0.0000000000         2.1347888183      -61.9576692579       83.4975761467
atom        13.6178000000       15.3550000000       15.1072000000 H         0.0000000000         0.0000000000       103.2629193823      -60.4065898177       47.8107907085
atom        15.6240000000       15.0090000000       15.1847000000 C         0.0000000000         0.0000000000      -248.4199138813        0.0844897556       32.1347538848
atom        14.4044000000       14.7948000000       15.6267000000 N         0.0000000000         0.0000000000       232.8506351217       96.1983373788     -139.5073581447
energy      -842.9062272471
charge 0
end
begin
comment generated by PY
lattice        30.0000000000         0.0000000000         0.0000000000
lattice         0.0000000000        30.0000000000         0.0000000000
lattice         0.0000000000         0.0000000000        30.0000000000
atom        16.5254000000       14.6300000000       15.6182000000 H         0.0000000000         0.0000000000      -105.3322286105       28.9596166681      -37.8769203548
atom        15.7134000000       15.6008000000       14.2449000000 H         0.0000000000         0.0000000000        -2.5170635388      -61.0029629074      107.2485278958
atom        13.5864000000       15.3740000000       15.1770000000 H         0.0000000000         0.0000000000       108.2247461301      -66.2335614249       33.2975258173
atom        15.6204000000       15.0073000000       15.1843000000 C         0.0000000000         0.0000000000      -231.2224803766       -5.3415332177       20.6877597331
atom        14.4062000000       14.7972000000       15.6255000000 N         0.0000000000         0.0000000000       230.8475263959      103.6185178214     -123.3564930914
energy      -832.0544451914
charge 0
end
begin
comment generated by PY
lattice        30.0000000000         0.0000000000         0.0000000000
lattice         0.0000000000        30.0000000000         0.0000000000
lattice         0.0000000000         0.0000000000        30.0000000000
atom        16.5483000000       14.5343000000       15.5901000000 H         0.0000000000         0.0000000000      -118.4848541322       52.0038521754      -35.9574163666
atom        15.7657000000       15.6005000000       14.2346000000 H         0.0000000000         0.0000000000       -16.5098805386      -57.8771419333      108.3872980036
atom        13.5642000000       15.3156000000       15.1621000000 H         0.0000000000         0.0000000000       112.6993324342      -55.3466529956       39.9961561056
atom        15.6052000000       15.0215000000       15.1841000000 C         0.0000000000         0.0000000000      -196.0307768686      -40.1852629022       22.4577308088
atom        14.4154000000       14.7960000000       15.6295000000 N         0.0000000000         0.0000000000       218.3263791053      101.4053056557     -134.8838454909
energy      -829.9101368805
charge 0
end
begin
comment generated by PY
lattice        30.0000000000         0.0000000000         0.0000000000
lattice         0.0000000000        30.0000000000         0.0000000000
lattice         0.0000000000         0.0000000000        30.0000000000
atom        16.5406000000       14.6027000000       15.7625000000 H         0.0000000000         0.0000000000      -115.8371018491       41.2025971729      -73.8140239563
atom        15.7896000000       15.6105000000       14.2554000000 H         0.0000000000         0.0000000000       -18.9895208626      -64.8650517253       96.7183864661
atom        13.5578000000       15.2959000000       15.2030000000 H         0.0000000000         0.0000000000       107.2520712625      -51.1856872946       29.3455934069
atom        15.6016000000       15.0056000000       15.1534000000 C         0.0000000000         0.0000000000      -192.8767990437      -17.1511647990       91.3887661621
atom        14.4178000000       14.8055000000       15.6392000000 N         0.0000000000         0.0000000000       220.4518504929       91.9992066460     -143.6385220787
energy      -826.8549392944
charge 0
end
begin
comment generated by PY
lattice        30.0000000000         0.0000000000         0.0000000000
lattice         0.0000000000        30.0000000000         0.0000000000
lattice         0.0000000000         0.0000000000        30.0000000000
atom        16.5469000000       14.4272000000       15.6893000000 H         0.0000000000         0.0000000000      -113.0770618017       74.3038497961      -58.7046894967
atom        15.8953000000       15.6208000000       14.2460000000 H         0.0000000000         0.0000000000       -36.8221043691      -59.3685325577      100.6873845388
atom        13.4976000000       15.2290000000       15.1952000000 H         0.0000000000         0.0000000000       117.3224615594      -37.9507854609       35.7322367235
atom        15.6187000000       15.0396000000       15.1543000000 C         0.0000000000         0.0000000000      -194.3203482762      -74.5366976824       79.3295850199
atom        14.3994000000       14.7929000000       15.6448000000 N         0.0000000000         0.0000000000       226.8970528876       97.5522659048     -157.0444167855
energy      -801.2142468412
charge 0
end
begin
comment generated by PY
lattice        30.0000000000         0.0000000000         0.0000000000
lattice         0.0000000000        30.0000000000         0.0000000000
lattice         0.0000000000         0.0000000000        30.0000000000
atom        16.4629000000       14.5174000000       15.7132000000 H         0.0000000000         0.0000000000      -104.3724648713       57.1857924355      -62.5319980042
atom        15.9418000000       15.6971000000       14.2815000000 H         0.0000000000         0.0000000000       -50.6149415665      -77.4484996668       94.1370912551
atom        13.5484000000       15.1989000000       15.1479000000 H         0.0000000000         0.0000000000       106.6760348965      -31.1781406667       43.0460461731
atom        15.5911000000       15.0157000000       15.1559000000 C         0.0000000000         0.0000000000      -161.4344653427      -28.8076859747       93.6628254828
atom        14.4222000000       14.8036000000       15.6425000000 N         0.0000000000         0.0000000000       209.7462138234       80.2484338727     -168.3142649068
energy      -828.6598390359
charge 0
end
begin
comment generated by PY
lattice        30.0000000000         0.0000000000         0.0000000000
lattice         0.0000000000        30.0000000000         0.0000000000
lattice         0.0000000000         0.0000000000        30.0000000000
atom        16.4110000000       14.5623000000       15.6908000000 H         0.0000000000         0.0000000000       -85.6752449278       44.2013652418      -55.6029551159
atom        15.9041000000       15.6991000000       14.3366000000 H         0.0000000000         0.0000000000       -41.6137357080      -75.2847416146       84.2770438291
atom        13.5605000000       15.2735000000       15.1115000000 H         0.0000000000         0.0000000000       110.4248704690      -48.5230266526       53.5007545918
atom        15.6100000000       15.0185000000       15.1516000000 C         0.0000000000         0.0000000000      -195.8725317165      -22.0509271598       99.7073810149
atom        14.4115000000       14.7926000000       15.6465000000 N         0.0000000000         0.0000000000       212.7358418833      101.6573301851     -181.8819243199
energy      -832.6261756017
charge 0
end
begin
comment generated by PY
lattice        30.0000000000         0.0000000000         0.0000000000
lattice         0.0000000000        30.0000000000         0.0000000000
lattice         0.0000000000         0.0000000000        30.0000000000
atom        16.3306000000       14.4701000000       15.6164000000 H         0.0000000000         0.0000000000       -55.8352522805       56.0680922372      -34.5176809411
atom        15.8283000000       15.6665000000       14.3661000000 H         0.0000000000         0.0000000000       -23.7955208063      -63.0907803419       73.1861608348
atom        13.6042000000       15.2128000000       15.0289000000 H         0.0000000000         0.0000000000       101.2667296115      -32.6885345821       68.9417898200
atom        15.6106000000       15.0281000000       15.1640000000 C         0.0000000000         0.0000000000      -230.8789041927      -49.0519704595       83.6654594934
atom        14.4190000000       14.7976000000       15.6450000000 N         0.0000000000         0.0000000000       209.2433476680       88.7631700857     -191.2755292070
energy      -849.1751161208
charge 0
end
begin
comment generated by PY
lattice        30.0000000000         0.0000000000         0.0000000000
lattice         0.0000000000        30.0000000000         0.0000000000
lattice         0.0000000000         0.0000000000        30.0000000000
atom        16.3871000000       14.6146000000       15.6607000000 H         0.0000000000         0.0000000000       -69.1990911043       28.5787178971      -39.5062064233
atom        15.8362000000       15.6328000000       14.3862000000 H         0.0000000000         0.0000000000       -30.1263543860      -58.2557564579       53.6711335640
atom        13.6566000000       15.2217000000       15.0026000000 H         0.0000000000         0.0000000000        88.4125834733      -34.7616746610       70.5193486912
atom        15.5989000000       14.9986000000       15.1463000000 C         0.0000000000         0.0000000000      -205.3813716417      -10.9848604285      119.4700398145
atom        14.4207000000       14.8144000000       15.6575000000 N         0.0000000000         0.0000000000       216.2951105981       75.4235667108     -204.1545387069
energy      -857.0064606714
charge 0
end
begin
comment generated by PY
lattice        30.0000000000         0.0000000000         0.0000000000
lattice         0.0000000000        30.0000000000         0.0000000000
lattice         0.0000000000         0.0000000000        30.0000000000
atom        16.4591000000       14.5485000000       15.6317000000 H         0.0000000000         0.0000000000       -98.6065048671       49.8270900574      -43.5254140366
atom        15.8602000000       15.6418000000       14.3655000000 H         0.0000000000         0.0000000000       -37.7105570256      -61.9964345154       64.6951289307
atom        13.6925000000       15.2253000000       14.9363000000 H         0.0000000000         0.0000000000        82.3470386715      -36.7067450175       86.8124891243
atom        15.5980000000       15.0096000000       15.1504000000 C         0.0000000000         0.0000000000      -170.1544010268      -37.3243228026      115.5948657639
atom        14.4120000000       14.8087000000       15.6622000000 N         0.0000000000         0.0000000000       224.1245011874       86.2003222780     -223.5768467218
energy      -841.6241765909
charge 0
end
begin
comment generated by PY
lattice        30.0000000000         0.0000000000         0.0000000000
lattice         0.0000000000        30.0000000000         0.0000000000
lattice         0.0000000000         0.0000000000        30.0000000000
atom        16.4618000000       14.4664000000       15.6871000000 H         0.0000000000         0.0000000000      -100.0151550446       70.7299083196      -60.0858449620
atom        15.7917000000       15.6184000000       14.2495000000 H         0.0000000000         0.0000000000       -21.2647549722      -67.0499824180      103.3621118323
atom        13.7255000000       15.3058000000       14.9516000000 H         0.0000000000         0.0000000000        76.5791560497      -53.7765905375       83.2432189567
atom        15.5990000000       15.0200000000       15.1653000000 C         0.0000000000         0.0000000000      -180.0173854748      -62.4338590989       82.9615739892
atom        14.4135000000       14.8016000000       15.6527000000 N         0.0000000000         0.0000000000       224.7182625024      112.5305006742     -209.4806598162
energy      -829.9370656376
charge 0
end
begin
comment generated by PY
lattice        30.0000000000         0.0000000000         0.0000000000
lattice         0.0000000000        30.0000000000         0.0000000000
lattice         0.0000000000         0.0000000000        30.0000000000
atom        16.4872000000       14.5748000000       15.7168000000 H         0.0000000000         0.0000000000      -103.4193264629       46.0219469103      -66.3830298380
atom        15.8538000000       15.7282000000       14.2640000000 H         0.0000000000         0.0000000000       -31.9258638781      -86.3169683859      101.7126015339
atom        13.6980000000       15.3603000000       15.0100000000 H         0.0000000000         0.0000000000        81.1739145958      -65.5337459459       72.8857167557
atom        15.6134000000       15.0092000000       15.1530000000 C         0.0000000000         0.0000000000      -183.7572537326      -14.4546001477       98.3462835300
atom        14.3969000000       14.7914000000       15.6559000000 N         0.0000000000         0.0000000000       237.9288294778      120.2833906298     -206.5618950422
energy      -813.2883337007
charge 0
end
begin
comment generated by PY
lattice        30.0000000000         0.0000000000         0.0000000000
lattice         0.0000000000        30.0000000000         0.0000000000
lattice         0.0000000000         0.0000000000        30.0000000000