begin
comment generated by PY
lattice        30.0000000000         0.0000000000         0.0000000000
lattice         0.0000000000        30.0000000000         0.0000000000
lattice         0.0000000000         0.0000000000        30.0000000000
atom        12.6793300000       15.8559500000       15.0828500000 H         0.0000000000         0.0000000000       126.6823892835      -32.8049947306       -1.2852245816
atom        15.6696000000       12.9485500000       15.0167700000 H         0.0000000000         0.0000000000       -34.9475455467      125.5862882126        4.6849197244
atom        18.3105700000       16.5058000000       15.1312100000 H         0.0000000000         0.0000000000       -90.8493337972       19.5069055205      -22.4235384363
atom        13.7459500000       15.5914100000       15.0712900000 C         0.0000000000         0.0000000000       147.1235398160      -36.3274677485      -78.3058396922
atom        15.9199300000       16.2074300000       15.0571000000 C         0.0000000000         0.0000000000       -91.1183597101      -86.8870496664     -135.1297397282
atom        15.3818500000       14.0046100000       15.0539200000 C         0.0000000000         0.0000000000       -40.9738720971      148.0937457546      -74.3966010491
atom        16.7359500000       17.1587500000       14.7579100000 O         0.0000000000         0.0000000000       -16.7435741168     -126.0416444312       70.4847921701
atom        14.5877500000       16.6005000000       14.9444400000 N         0.0000000000         0.0000000000        81.5212457864     -268.6190263320       78.2890208669
atom        14.0647600000       14.2978400000       14.9534900000 N         0.0000000000         0.0000000000       187.3777244550      190.3031863359       76.4246816272
atom        16.3436200000       14.8974300000       14.9486100000 N         0.0000000000         0.0000000000      -268.0312126314       67.2280264463       81.6479050925
energy     -2197.6621316550
charge 0
end
begin
comment generated by PY
lattice        30.0000000000         0.0000000000         0.0000000000
lattice         0.0000000000        30.0000000000         0.0000000000
lattice         0.0000000000         0.0000000000        30.0000000000
atom        12.6854600000       15.8354600000       15.0587600000 H         0.0000000000         0.0000000000       127.0237353344      -28.4797204566       -5.9627652551
atom        15.6671500000       12.9648800000       15.0241400000 H         0.0000000000         0.0000000000       -34.5472355617      125.5238648148       -3.7591206255
atom        17.7378200000       16.6899500000       14.7381800000 H         0.0000000000         0.0000000000      -146.9221921604       59.6188837902       13.2312052266
atom        13.7477600000       15.5815500000       15.0010000000 C         0.0000000000         0.0000000000       135.5612177564      -38.2524088546       30.9099330481
atom        15.8554200000       16.1750100000       14.8734500000 C         0.0000000000         0.0000000000       -35.6177616876      -61.0078899909       94.4120275447
atom        15.3630100000       14.0162100000       14.9858200000 C         0.0000000000         0.0000000000       -39.7817664066      131.5209283759       39.8436582019
atom        16.8173000000       17.1754500000       14.8151200000 O         0.0000000000         0.0000000000        18.0516866476     -173.9434647589      -10.1167787453
atom        14.6308900000       16.5941300000       15.0234400000 N         0.0000000000         0.0000000000        64.3828292666     -292.0574806955      -59.1593343850
atom        14.0384600000       14.2514200000       15.0257100000 N         0.0000000000         0.0000000000       211.3841569215      223.7621442371      -29.8644938853
atom        16.3444200000       14.9446200000       15.0375500000 N         0.0000000000         0.0000000000      -299.5548613631       53.3065419540      -69.5494019052
energy     -2310.8790309351
charge 0
end
begin
comment generated by PY
lattice        30.0000000000         0.0000000000         0.0000000000
lattice         0.0000000000        30.0000000000         0.0000000000
lattice         0.0000000000         0.0000000000        30.0000000000
atom        12.6777800000       15.8275600000       15.0153700000 H         0.0000000000         0.0000000000       125.6471666301      -36.7883033216        3.7416380848
atom        15.7107300000       12.9971900000       15.0502500000 H         0.0000000000         0.0000000000       -48.7719032435      120.7318250696        0.5564230860
atom        17.6056300000       16.8174000000       14.4140600000 H         0.0000000000         0.0000000000       -66.8553145097       22.2976397144       48.2370345089
atom        13.7323900000       15.5292700000       15.0213300000 C         0.0000000000         0.0000000000       141.1756954297      -12.0051511631       -8.2905123285
atom        15.9439500000       16.2427700000       14.8704300000 C         0.0000000000         0.0000000000      -146.5571738277     -157.1938249137       74.3054230634
atom        15.3325300000       14.0235300000       15.0317700000 C         0.0000000000         0.0000000000       -25.4240592725      134.9757235407      -12.6152987063
atom        16.8743100000       17.1846000000       14.8593100000 O         0.0000000000         0.0000000000       -45.7991838133     -122.0040448954      -50.1522022377
atom        14.5996100000       16.5690500000       14.9896500000 N         0.0000000000         0.0000000000        94.4375555923     -246.9861681871      -25.9627884884
atom        14.0190400000       14.2307000000       15.0292500000 N         0.0000000000         0.0000000000       212.1183590486      220.4081763808       -1.3606097118
atom        16.3002200000       14.9495500000       14.9874100000 N         0.0000000000         0.0000000000      -239.9951570333       76.5222273984      -28.4439716114
energy     -2314.0270444386
charge 0
end
begin
comment generated by PY
lattice        30.0000000000         0.0000000000         0.0000000000
lattice         0.0000000000        30.0000000000         0.0000000000
lattice         0.0000000000         0.0000000000        30.0000000000
atom        12.6871900000       15.8734100000       15.1124600000 H         0.0000000000         0.0000000000       123.6424276733      -39.5319311398      -16.4925244391
atom        15.6726100000       12.9481700000       15.1875200000 H         0.0000000000         0.0000000000       -33.4991496424      124.4681497006      -23.5881241277
atom        17.6896600000       16.6248400000       14.7657200000 H         0.0000000000         0.0000000000      -125.9625090706       80.0594399994       13.4384632993
atom        13.7414500000       15.5800600000       15.0307300000 C         0.0000000000         0.0000000000       128.4232758892      -28.9399520582      -24.8864487192
atom        15.8909000000       16.1814000000       15.0363300000 C         0.0000000000         0.0000000000       -87.5602892508      -65.2841502976     -145.0274888731
atom        15.3841200000       13.9969100000       15.0535300000 C         0.0000000000         0.0000000000       -58.6646662669      144.7185155558      -38.0034429210
atom        16.8379900000       17.2098300000       14.8434300000 O         0.0000000000         0.0000000000         6.1777422287     -215.5506125115       20.6691771474
atom        14.5851200000       16.5992500000       14.9045400000 N         0.0000000000         0.0000000000       103.5859892575     -287.1440918608       85.5463556391
atom        14.0317200000       14.2637700000       15.0383400000 N         0.0000000000         0.0000000000       210.8065040121      207.8323934421       23.0300885592
atom        16.3330600000       14.9033500000       14.8706800000 N         0.0000000000         0.0000000000      -266.9585473794       79.4299437803      105.3184853024
energy     -2280.6337362711
charge 0
end
begin
comment generated by PY
lattice        30.0000000000         0.0000000000         0.0000000000
lattice         0.0000000000        30.0000000000         0.0000000000
lattice         0.0000000000         0.0000000000        30.0000000000
atom        12.6811000000       15.7846500000       14.9131000000 H         0.0000000000         0.0000000000       128.9264822493      -13.6119327063       14.2065685951
atom        15.6076300000       12.9480000000       14.9643200000 H         0.0000000000         0.0000000000       -22.9303252811      128.7019480075        8.8238975664
atom        17.7439300000       16.8583000000       15.1446700000 H         0.0000000000         0.0000000000      -158.2369655978       19.8650179608      -45.3480978728
atom        13.7569700000       15.6024200000       14.9862400000 C         0.0000000000         0.0000000000       141.7649633099      -49.4231198897       27.1064454118
atom        15.8455800000       16.1442600000       14.8429700000 C         0.0000000000         0.0000000000       -15.2667902505      -48.2162042156       91.8742942777
atom        15.3662000000       14.0179400000       14.9978300000 C         0.0000000000         0.0000000000       -43.2864819229      134.6414084171       18.5166606504
atom        16.7709800000       17.1435800000       14.8846500000 O         0.0000000000         0.0000000000        38.2565237721     -118.4087659644       29.5466997173
atom        14.6345100000       16.6055300000       14.9647400000 N         0.0000000000         0.0000000000        54.8677194690     -307.0044879825      -47.4343705477
atom        14.0763000000       14.2970700000       15.1331600000 N         0.0000000000         0.0000000000       191.2029583996      200.1244052807      -76.3546596735
atom        16.3578200000       14.9237800000       14.9234900000 N         0.0000000000         0.0000000000      -315.2949713994       53.3794823681      -20.9337464370
energy     -2324.2665550651
charge 0
end
begin
comment generated by PY
lattice        30.0000000000         0.0000000000         0.0000000000
lattice         0.0000000000        30.0000000000         0.0000000000
lattice         0.0000000000         0.0000000000        30.0000000000
atom        12.6973400000       15.9157000000       15.0404100000 H         0.0000000000         0.0000000000       121.7629253524      -48.0497373383        0.9407175347
atom        15.7060100000       12.9734400000       14.9476900000 H         0.0000000000         0.0000000000       -53.8279912430      120.1389066259       11.3700192702
atom        17.5698300000       16.7037700000       14.9381200000 H         0.0000000000         0.0000000000       -47.9540336963       30.5757317272        0.6642988553
atom        13.7338800000       15.5678500000       15.0180000000 C         0.0000000000         0.0000000000       167.4527563091      -15.8404188624       13.2820151632
atom        15.9270300000       16.2287500000       14.7868100000 C         0.0000000000         0.0000000000      -149.4190067036     -131.3015795906      118.4085130959
atom        15.3284100000       14.0046000000       14.9942100000 C         0.0000000000         0.0000000000        -2.9164661673      146.5751681475       20.5572443110
atom        16.7961000000       17.1891600000       14.9425800000 O         0.0000000000         0.0000000000       -31.3259443226     -134.6043755305      -29.6510310549
atom        14.6326500000       16.5663600000       14.8992700000 N         0.0000000000         0.0000000000        79.6545045189     -252.6278985224      -20.7231443875
atom        14.0396100000       14.2761000000       15.1669700000 N         0.0000000000         0.0000000000       191.1512703527      198.3809405586      -80.8861252408
atom        16.3542700000       14.9003100000       14.9198300000 N         0.0000000000         0.0000000000      -274.5797749727       86.7654077231      -33.9572605605
energy     -2310.6661784835
charge 0
end
begin
comment generated by PY
lattice        30.0000000000         0.0000000000         0.0000000000
lattice         0.0000000000        30.0000000000         0.0000000000
lattice         0.0000000000         0.0000000000        30.0000000000
atom        12.7169300000       15.8709500000       15.1922200000 H         0.0000000000         0.0000000000       123.4085657032      -39.8941392047      -21.2251599452
atom        15.6397100000       12.9789500000       15.1259300000 H         0.0000000000         0.0000000000       -22.9029479147      122.6554880819      -18.6209506186
atom        17.8480100000       16.7871400000       14.8540100000 H         0.0000000000         0.0000000000      -161.3891294749       50.9083044881       13.5419457876
atom        13.7736700000       15.5682900000       15.0703700000 C         0.0000000000         0.0000000000        81.4851078054      -19.4030471747      -58.1616408134
atom        15.8963300000       16.1283400000       15.0093700000 C         0.0000000000         0.0000000000       -69.1576142177      -29.3839268693     -164.6126823849
atom        15.3878700000       14.0280300000       15.0381100000 C         0.0000000000         0.0000000000       -84.1466206623      112.6706867868      -31.8078326004
atom        16.8529600000       17.2140900000       14.9249200000 O         0.0000000000         0.0000000000        29.3355584185     -186.3552117841        4.4559658469
atom        14.5747500000       16.5874900000       14.7725000000 N         0.0000000000         0.0000000000       109.1267976170     -293.3093308294      152.8496083208
atom        14.0185700000       14.2595400000       15.1197600000 N         0.0000000000         0.0000000000       238.6000739857      222.3478823405       -0.6639472615
atom        16.2928900000       14.9297700000       14.8229100000 N         0.0000000000         0.0000000000      -244.3950782912       59.7773070074      124.2458005750
energy     -2281.4117417909
charge 0
end
begin
comment generated by PY
lattice        30.0000000000         0.0000000000         0.0000000000
lattice         0.0000000000        30.0000000000         0.0000000000
lattice         0.0000000000         0.0000000000        30.0000000000
atom        12.6627200000       15.7269900000       14.9658700000 H         0.0000000000         0.0000000000       131.1230888734       -5.6128976197        6.8942681761
atom        15.6413300000       12.8917600000       14.9629200000 H         0.0000000000         0.0000000000       -26.7712246651      136.2183244520        9.9303648136
atom        17.6663300000       16.6090400000       14.8789000000 H         0.0000000000         0.0000000000      -122.6063840019       56.1762068269        8.1955322247
atom        13.7453700000       15.5824700000       15.0131400000 C         0.0000000000         0.0000000000       150.3561717219      -61.9355548952       -9.4705734219
atom        15.8640900000       16.2542000000       14.9074100000 C         0.0000000000         0.0000000000       -90.2416433013     -150.3847114899      -20.9473334730
atom        15.3727600000       13.9788000000       15.0239100000 C         0.0000000000         0.0000000000       -50.9177855257      179.0255851990      -19.7664360076
atom        16.8207700000       17.1307800000       14.9321200000 O         0.0000000000         0.0000000000        11.8452878093     -130.0321393205      -10.9816512787
atom        14.6168500000       16.6044600000       14.8577400000 N         0.0000000000         0.0000000000        70.2303478763     -262.0932653940       47.5561158193
atom        14.0717500000       14.2692100000       15.1641400000 N         0.0000000000         0.0000000000       187.0277034379      199.2967151695      -58.6145994532
atom        16.3160300000       14.9496600000       14.8598400000 N         0.0000000000         0.0000000000      -260.0403044197       39.3727384191       47.1923572366
energy     -2310.3116019917
charge 0
end
begin
comment generated by PY
lattice        30.0000000000         0.0000000000         0.0000000000
lattice         0.0000000000        30.0000000000         0.0000000000
lattice         0.0000000000         0.0000000000        30.0000000000
atom        12.7122500000       15.9686900000       14.9953800000 H         0.0000000000         0.0000000000       109.9370123106      -66.6516440516       -1.8053097203
atom        15.8497400000       13.1011700000       15.0901000000 H         0.0000000000         0.0000000000       -87.7801328658      101.1904734915       -9.9925759355
atom        17.6576000000       16.7425100000       14.9898400000 H         0.0000000000         0.0000000000       -77.3958925247       21.9920037079       -9.3893056495
atom        13.7191700000       15.5581100000       14.9607000000 C         0.0000000000         0.0000000000       154.3625016662       20.3149267372       74.0243729982
atom        15.8851700000       16.1599200000       14.7700700000 C         0.0000000000         0.0000000000       -44.6249189584      -54.4357163424      151.7336282846
atom        15.3376200000       14.0799300000       14.9871500000 C         0.0000000000         0.0000000000        38.0947121744       68.6039608060       66.4985844421
atom        16.8300200000       17.1583200000       14.9258200000 O         0.0000000000         0.0000000000       -50.8207434699     -136.9795945995      -22.6243922998
atom        14.5717600000       16.5939900000       14.9672100000 N         0.0000000000         0.0000000000       103.8519301546     -297.5771476644      -79.9237988115
atom        14.0583100000       14.2788300000       15.1675100000 N         0.0000000000         0.0000000000       184.2238969032      215.6371189372     -111.0174226499
atom        16.3807200000       14.8923000000       14.9294200000 N         0.0000000000         0.0000000000      -329.8298171648      127.8750184824      -57.5254987552
energy     -2301.2523076067
charge 0
end
begin
comment generated by PY
lattice        30.0000000000         0.0000000000         0.0000000000
lattice         0.0000000000        30.0000000000         0.0000000000
lattice         0.0000000000         0.0000000000        30.0000000000
atom        12.6608900000       15.8428600000       15.0421000000 H         0.0000000000         0.0000000000       132.0679638424      -25.2389516872       -1.7329591079
atom        15.4618600000       12.9234100000       15.1838100000 H         0.0000000000         0.0000000000        18.8260440678      121.5161428884      -15.4632530039
atom        17.7461700000       16.7633900000       14.9482900000 H         0.0000000000         0.0000000000      -150.0245147994       55.5960712131      -14.0801808612
atom        13.7391100000       15.5817900000       15.0405000000 C         0.0000000000         0.0000000000       139.1788530648      -49.7922199200      -47.5629879814
atom        15.9101700000       16.1672800000       14.9569700000 C         0.0000000000         0.0000000000      -113.2191875812      -67.2503086607      -70.1363806361
atom        15.4050200000       13.9872100000       15.0858300000 C         0.0000000000         0.0000000000      -101.4817932342      181.1104803382      -66.6127904051
atom        16.7918900000       17.2005900000       14.8644200000 O         0.0000000000         0.0000000000        47.2905676260     -178.7674237075       26.8419311303
atom        14.6511100000       16.5592800000       14.9051800000 N         0.0000000000         0.0000000000        69.7136912893     -259.4478353804       61.3275133541
atom        13.9948800000       14.2928300000       15.0452600000 N         0.0000000000         0.0000000000       211.4154671918      201.4650542182       31.8706034696
atom        16.3370400000       14.9378100000       14.8633700000 N         0.0000000000         0.0000000000      -253.7681785865       20.8245727221       95.5598879522
energy     -2297.1227740727
charge 0
end
begin
comment generated by PY
lattice        30.0000000000         0.0000000000         0.0000000000
lattice         0.0000000000        30.0000000000         0.0000000000
lattice         0.0000000000         0.0000000000        30.0000000000
atom        12.7270200000       15.8041900000       15.0105300000 H         0.0000000000         0.0000000000       130.0099795650      -19.4490314700       -1.6549701623
atom        15.7960300000       12.9753000000       15.0037100000 H         0.0000000000         0.0000000000       -77.6700798776      111.6964880021        4.0089775929
atom        17.6888900000       16.8072200000       14.6511500000 H         0.0000000000         0.0000000000      -128.2864453124       42.7942065836       29.6763396830
atom        13.8053000000       15.5979800000       15.0039600000 C         0.0000000000         0.0000000000        96.6679627669      -22.3980895854        0.6358345594
atom        15.9284400000       16.2161500000       14.9668900000 C         0.0000000000         0.0000000000      -126.9743495515     -119.4759406495      -33.0856685825
atom        15.2984300000       13.9707500000       15.0224500000 C         0.0000000000         0.0000000000        24.2537786356      146.1998663494      -10.9064192361
atom        16.7860300000       17.2023600000       14.8303800000 O         0.0000000000         0.0000000000        38.7928588065     -154.8502496441       -8.8187494429
atom        14.6316100000       16.6382200000       14.9498500000 N         0.0000000000         0.0000000000        80.5467981437     -312.8659723630       21.6239284192
atom        14.0577200000       14.2240600000       15.0484900000 N         0.0000000000         0.0000000000       200.6567631332      211.3425974503      -14.0109538606
atom        16.2948900000       14.8798600000       14.9679100000 N         0.0000000000         0.0000000000      -237.9732692809      117.0317658082       12.5448166634
energy     -2306.1423170954
charge 0
end
begin
comment generated by PY
lattice        30.0000000000         0.0000000000         0.0000000000
lattice         0.0000000000        30.0000000000         0.0000000000
lattice         0.0000000000         0.0000000000        30.0000000000
atom        12.6881400000       15.9912600000       14.9884900000 H         0.0000000000         0.0000000000       113.2126742206      -67.4122815478        5.1092990375
atom        15.6008800000       12.9566100000       14.9605200000 H         0.0000000000         0.0000000000       -16.6054845690      128.5004739775        2.8873778688
atom        17.6728700000       16.7570600000       14.7479400000 H         0.0000000000         0.0000000000       -77.3913034352       12.2236231889        6.0889068441
atom        13.6946900000       15.5613000000       14.9934300000 C         0.0000000000         0.0000000000       182.8069706666      -17.0909829131       30.3504245754
atom        15.8450100000       16.1923700000       14.8713500000 C         0.0000000000         0.0000000000       -37.9660462028      -75.5078824004      106.0818498916
atom        15.3963900000       14.0288900000       14.9646700000 C         0.0000000000         0.0000000000       -46.5596692604      140.1949002873       61.3482682203
atom        16.8427000000       17.1555700000       14.8045200000 O         0.0000000000         0.0000000000       -67.6369902574     -116.7557164135       -0.8744743911
atom        14.6129300000       16.5588000000       15.0217200000 N         0.0000000000         0.0000000000        93.5237891603     -249.3740723109      -68.3135953676
atom        14.0261700000       14.2952900000       15.0418800000 N         0.0000000000         0.0000000000       174.4019568074      207.8109235786      -49.2631502215
atom        16.3806400000       14.9350700000       15.0704900000 N         0.0000000000         0.0000000000      -317.8347691249       37.3923439059      -93.4400010916
energy     -2307.9304385050
charge 0
end
begin
comment generated by PY
lattice        30.0000000000         0.0000000000         0.0000000000
lattice         0.0000000000        30.0000000000         0.0000000000
lattice         0.0000000000         0.0000000000        30.0000000000
atom        12.6280000000       15.6609100000       15.1915800000 H         0.0000000000         0.0000000000       129.2182974332        8.9684261315      -17.5505085525
atom        15.6013400000       12.9770500000       15.0526200000 H         0.0000000000         0.0000000000       -18.6519727603      134.7697947321        1.6166712885
atom        17.6803600000       16.5567300000       14.9127300000 H         0.0000000000         0.0000000000      -129.1412553770       76.0994446190      -26.4589478778
atom        13.7109300000       15.5731800000       15.0722800000 C         0.0000000000         0.0000000000       162.9088821807      -48.6775123662      -62.0135303142
atom        15.9119700000       16.1741200000       15.0127800000 C         0.0000000000         0.0000000000       -91.7847833657      -75.8325081582      -78.4076312140
atom        15.3612800000       14.0635100000       15.0599500000 C         0.0000000000         0.0000000000       -55.3813604545       97.6976574554      -66.4047465094
atom        16.8236400000       17.1198900000       14.7530500000 O         0.0000000000         0.0000000000        22.1087140013     -170.1072384807       62.7421279105
atom        14.5859200000       16.5823800000       14.9628200000 N         0.0000000000         0.0000000000        66.0871317093     -275.1111304517       58.6639190400
atom        14.0524400000       14.2781600000       14.9163300000 N         0.0000000000         0.0000000000       209.7980510570      205.6698083368       89.4586718149
atom        16.3656300000       14.9815900000       15.0102100000 N         0.0000000000         0.0000000000      -295.1285970220       46.5791953136       38.3454858296
energy     -2310.3432673717
charge 0
end
begin
comment generated by PY
lattice        30.0000000000         0.0000000000         0.0000000000
lattice         0.0000000000        30.0000000000         0.0000000000
lattice         0.0000000000         0.0000000000        30.0000000000
atom        12.7694700000       15.9121800000       15.1515400000 H         0.0000000000         0.0000000000       119.1964603884      -52.7986635735      -19.8719472724
atom        15.8051800000       12.9632500000       15.1721700000 H         0.0000000000         0.0000000000       -65.8154007847      109.8829909028      -23.2294971769
atom        17.7072600000       16.7035600000       14.7220600000 H         0.0000000000         0.0000000000      -134.5995476951       54.9279369392        7.4537968131
atom        13.8074700000       15.5733800000       15.0210800000 C         0.0000000000         0.0000000000        85.4180603777      -14.4646851788        2.1340354516
atom        15.8851700000       16.2542600000       14.9317400000 C         0.0000000000         0.0000000000      -125.1109788410     -108.3236202154       34.8043198913
atom        15.3706600000       13.9532600000       15.0191800000 C         0.0000000000         0.0000000000       -21.6105694875      189.3643916086       22.0765112432
atom        16.8056700000       17.1748900000       14.7584800000 O         0.0000000000         0.0000000000        28.4534302146     -160.7085479988       14.3766189208
atom        14.6065900000       16.6607900000       15.0281500000 N         0.0000000000         0.0000000000       129.0239328037     -309.5349428276      -26.4547646102
atom        14.0507200000       14.2420100000       14.9334500000 N         0.0000000000         0.0000000000       201.3368229184      211.7441077137       37.6400001779
atom        16.2727600000       14.8746800000       15.0779200000 N         0.0000000000         0.0000000000      -216.2389592082       79.9023304070      -48.9407275912
energy     -2293.4885985184
charge 0
end
begin
comment generated by PY
lattice        30.0000000000         0.0000000000         0.0000000000
lattice         0.0000000000        30.0000000000         0.0000000000
lattice         0.0000000000         0.0000000000        30.0000000000
atom        12.6747400000       15.8486400000       14.8497800000 H         0.0000000000         0.0000000000       128.6399409321      -27.6246062149       22.7634185479
atom        15.4829000000       12.9249100000       14.9352000000 H         0.0000000000         0.0000000000         1.6117204817      129.9172500901       17.5696797312
atom        17.6937200000       16.9210400000       14.6515700000 H         0.0000000000         0.0000000000       -92.3138023584        2.0107600747       13.6636844373
atom        13.7386800000       15.5898000000       14.9700200000 C         0.0000000000         0.0000000000       162.3622268492      -38.2135175141       20.7339521857
atom        15.8841800000       16.1545400000       14.9088900000 C         0.0000000000         0.0000000000       -42.3704092593      -71.6949149470       90.0990185989
atom        15.3277900000       14.0036300000       15.0150900000 C         0.0000000000         0.0000000000       -72.7376825906      133.7877426150        4.9826707387
atom        16.8074600000       17.1949800000       14.7655300000 O         0.0000000000         0.0000000000       -38.7374619676     -120.7482463642        4.4649466100
atom        14.6527800000       16.5511200000       15.0663600000 N         0.0000000000         0.0000000000        42.9883739822     -262.1529294529      -82.3205879647
atom        14.0439300000       14.2670500000       14.9879500000 N         0.0000000000         0.0000000000       199.9080013579      209.2448434908      -15.3770296098
atom        16.3587000000       14.9563600000       15.0875800000 N         0.0000000000         0.0000000000      -289.3200597459       45.4597280149      -76.5663340363
energy     -2323.7238333865
charge 0
end
begin
comment generated by PY