begin
comment generated by PY
lattice        30.0000000000         0.0000000000         0.0000000000
lattice         0.0000000000        30.0000000000         0.0000000000
lattice         0.0000000000         0.0000000000        30.0000000000
atom        16.1544000000       17.3780000000       15.2307000000 H         0.0000000000         0.0000000000       -67.5112077972     -103.3214004245       -7.0123764929
atom        16.2506000000       15.6666000000       14.5661000000 H         0.0000000000         0.0000000000       -64.0750831644       77.0131900521       57.6313088833
atom        14.2718000000       13.7248000000       13.7296000000 H         0.0000000000         0.0000000000         0.1500848786       19.3733845715      111.8283234875
atom        15.0139000000       13.1789000000       15.3146000000 H         0.0000000000         0.0000000000       -67.1132799778       77.6149757110      -46.8860238166
atom        15.6797000000       16.4144000000       15.1014000000 C         0.0000000000         0.0000000000      -174.8071191496      -68.2654996613       56.2467436767
atom        14.3793000000       13.8939000000       14.7977000000 C         0.0000000000         0.0000000000       -88.0242260609      146.3213160889       94.0378502957
atom        14.4687000000       16.1910000000       15.5793000000 N         0.0000000000         0.0000000000       191.6037796561      -52.8602270096     -101.3219730321
atom        13.7359000000       14.9221000000       15.4506000000 N         0.0000000000         0.0000000000       269.7766516153      -95.8756393282     -164.5243530017
energy     -1384.0388612730
charge 0
end
begin
comment generated by PY
lattice        30.0000000000         0.0000000000         0.0000000000
lattice         0.0000000000        30.0000000000         0.0000000000
lattice         0.0000000000         0.0000000000        30.0000000000
atom        15.5913000000       17.8355000000       15.1040000000 H         0.0000000000         0.0000000000       -17.1054355268     -105.2183317341       32.6069421008
atom        16.0317000000       16.7947000000       16.4783000000 H         0.0000000000         0.0000000000       -58.0926525677       -5.4328385821      -93.1271670721
atom        13.3121000000       14.1306000000       13.8311000000 H         0.0000000000         0.0000000000        56.7874886179      -25.0895910176       95.9807007193
atom        13.4678000000       12.8864000000       15.1894000000 H         0.0000000000         0.0000000000        37.4368683274      105.7122827274      -39.2931418908
atom        15.4978000000       16.8800000000       15.5492000000 C         0.0000000000         0.0000000000      -132.2043954378     -164.9064014178      -64.3132416935
atom        13.7481000000       13.8363000000       14.7732000000 C         0.0000000000         0.0000000000        83.8447815190      169.4678060939      135.9641276859
atom        14.7301000000       15.9933000000       14.9879000000 N         0.0000000000         0.0000000000       129.7134308534      103.7973067980      139.1944077344
atom        14.4069000000       14.6484000000       15.5529000000 N         0.0000000000         0.0000000000      -100.3799627249      -78.3298889888     -207.0125506445
energy     -1473.1119810354
charge 0
end
begin
comment generated by PY
lattice        30.0000000000         0.0000000000         0.0000000000
lattice         0.0000000000        30.0000000000         0.0000000000
lattice         0.0000000000         0.0000000000        30.0000000000
atom        15.2649000000       17.8114000000       15.6691000000 H         0.0000000000         0.0000000000       -39.9485061477     -124.6533319673      -19.8475048014
atom        13.9735000000       16.6285000000       16.2706000000 H         0.0000000000         0.0000000000        96.4913252453        5.5838558502      -65.1982468222
atom        12.8701000000       14.9661000000       14.6123000000 H         0.0000000000         0.0000000000        72.9468653195      -65.8235443466       63.4324692185
atom        12.9914000000       13.5287000000       15.8290000000 H         0.0000000000         0.0000000000        74.9816026419       68.9265762787      -94.4665238957
atom        14.8407000000       16.7860000000       15.6303000000 C         0.0000000000         0.0000000000        49.7894351937     -169.9346099408     -110.0175264155
atom        13.5110000000       14.2677000000       15.1441000000 C         0.0000000000         0.0000000000       199.4572383629       65.6755055985       17.6248529141
atom        15.3147000000       15.8068000000       14.8747000000 N         0.0000000000         0.0000000000      -160.4600710564      106.0556149860      192.9729349525
atom        14.8254000000       14.4535000000       15.1513000000 N         0.0000000000         0.0000000000      -293.2584434381      114.1699335414       15.4992979101
energy     -1442.8938088880
charge 0
end
begin
comment generated by PY
lattice        30.0000000000         0.0000000000         0.0000000000
lattice         0.0000000000        30.0000000000         0.0000000000
lattice         0.0000000000         0.0000000000        30.0000000000
atom        15.8414000000       17.7054000000       15.6926000000 H         0.0000000000         0.0000000000       -67.6874115197      -76.7759448694      -45.8683765416
atom        14.6779000000       17.4887000000       14.3200000000 H         0.0000000000         0.0000000000        52.9733667937      -56.0943695615       81.0708761077
atom        13.8648000000       13.3786000000       16.3493000000 H         0.0000000000         0.0000000000       -25.1683811637       51.8318427821     -102.8911837431
atom        12.9549000000       13.2785000000       14.7695000000 H         0.0000000000         0.0000000000        88.1593645361       37.5115979086       34.7644256657
atom        15.2051000000       17.0524000000       15.1531000000 C         0.0000000000         0.0000000000       -44.8512501114     -217.0342765627       54.3041998750
atom        13.7008000000       13.7280000000       15.3278000000 C         0.0000000000         0.0000000000       152.5789301559      194.2219042847      -35.1710538100
atom        15.0890000000       15.8284000000       15.5778000000 N         0.0000000000         0.0000000000        -1.8472671926      159.4477107529     -137.2207116961
atom        14.4157000000       14.7437000000       14.7893000000 N         0.0000000000         0.0000000000      -154.1574284377      -93.1086416742      151.0119241424
energy     -1443.8941399614
charge 0
end
begin
comment generated by PY
lattice        30.0000000000         0.0000000000         0.0000000000
lattice         0.0000000000        30.0000000000         0.0000000000
lattice         0.0000000000         0.0000000000        30.0000000000
atom        16.2806000000       17.1291000000       15.8154000000 H         0.0000000000         0.0000000000       -80.8213973068      -58.3937780044      -69.8567284393
atom        16.3740000000       15.9728000000       14.4724000000 H         0.0000000000         0.0000000000       -81.5834912153       30.9403437986       76.2900355472
atom        15.4489000000       13.8148000000       14.6877000000 H         0.0000000000         0.0000000000      -109.5616173415        0.0805022111       51.2181054024
atom        13.8731000000       12.8194000000       15.1854000000 H         0.0000000000         0.0000000000        55.1074153020      124.0123064961      -20.0610463062
atom        15.7122000000       16.4440000000       15.1956000000 C         0.0000000000         0.0000000000      -189.1735614590      -37.5201863152       40.0536818042
atom        14.4049000000       13.8080000000       15.0464000000 C         0.0000000000         0.0000000000       -93.5534647860      195.0115672006        4.1915622881
atom        14.3982000000       16.2448000000       15.4395000000 N         0.0000000000         0.0000000000       295.6867351297      -84.1386226121      -59.0248949106
atom        13.7361000000       14.9316000000       15.2019000000 N         0.0000000000         0.0000000000       203.9001816769     -169.9924727747      -22.8106692647
energy     -1421.9393437170
charge 0
end
begin
comment generated by PY
lattice        30.0000000000         0.0000000000         0.0000000000
lattice         0.0000000000        30.0000000000         0.0000000000
lattice         0.0000000000         0.0000000000        30.0000000000
atom        15.5239000000       17.9293000000       15.2019000000 H         0.0000000000         0.0000000000        -3.0858128574     -124.0779849468       32.3678182487
atom        15.7532000000       16.7234000000       16.6414000000 H         0.0000000000         0.0000000000       -41.5754580493       20.4915528009     -107.4021680100
atom        13.4656000000       13.9571000000       13.7951000000 H         0.0000000000         0.0000000000        42.2133000399      -15.7826520526       93.4552601044
atom        13.4954000000       12.8084000000       15.2048000000 H         0.0000000000         0.0000000000        29.0403218182      114.2659079966      -29.0792721429
atom        15.4341000000       16.9136000000       15.6098000000 C         0.0000000000         0.0000000000      -107.9058350720     -188.9027367816      -78.7898282752
atom        13.7619000000       13.7685000000       14.7927000000 C         0.0000000000         0.0000000000        84.2533776549      196.2552862213      106.7499080620
atom        14.8747000000       15.9719000000       14.9109000000 N         0.0000000000         0.0000000000        40.1053783955      131.5275393596      168.7204343200
atom        14.3169000000       14.7155000000       15.5441000000 N         0.0000000000         0.0000000000       -43.0453719298     -133.7764125973     -186.0231753675
energy     -1449.6258813373
charge 0
end
begin
comment generated by PY
lattice        30.0000000000         0.0000000000         0.0000000000
lattice         0.0000000000        30.0000000000         0.0000000000
lattice         0.0000000000         0.0000000000        30.0000000000
atom        15.1106000000       17.7814000000       15.0892000000 H         0.0000000000         0.0000000000       -24.6595092958     -103.6054391493       35.4141402031
atom        14.0417000000       16.8921000000       16.2161000000 H         0.0000000000         0.0000000000        54.8471652989      -18.2789332811      -92.3016456340
atom        12.7554000000       14.9184000000       15.7482000000 H         0.0000000000         0.0000000000        81.6309623306      -55.8475209463      -85.0749187219
atom        13.0911000000       13.3250000000       14.7685000000 H         0.0000000000         0.0000000000        51.5156232934      106.2784703430       43.6918485948
atom        14.7552000000       16.8384000000       15.4298000000 C         0.0000000000         0.0000000000       149.4579293194     -170.6723282928        2.3662482153
atom        13.4695000000       14.2902000000       15.1278000000 C         0.0000000000         0.0000000000       215.3755265887        9.4877268812       53.5710644917
atom        15.4577000000       15.7576000000       15.1390000000 N         0.0000000000         0.0000000000      -259.0249727721      166.5235953957       45.8374785603
atom        14.7986000000       14.4396000000       15.1129000000 N         0.0000000000         0.0000000000      -269.1416786420       66.1148629284       -3.5036457092
energy     -1430.0246756819
charge 0
end
begin
comment generated by PY
lattice        30.0000000000         0.0000000000         0.0000000000
lattice         0.0000000000        30.0000000000         0.0000000000
lattice         0.0000000000         0.0000000000        30.0000000000
atom        15.4869000000       17.8382000000       15.7020000000 H         0.0000000000         0.0000000000       -19.3320497511     -116.9967035108      -44.9035535812
atom        15.0431000000       17.1626000000       14.0756000000 H         0.0000000000         0.0000000000        11.8041836402      -40.4444712444      120.0623211841
atom        13.8772000000       13.7567000000       16.3973000000 H         0.0000000000         0.0000000000        -5.7685266634       16.0885970525     -108.6484349130
atom        13.2307000000       13.0952000000       14.8062000000 H         0.0000000000         0.0000000000        63.4399160574       87.5937302165       49.6386752497
atom        15.2228000000       16.9258000000       15.1556000000 C         0.0000000000         0.0000000000       -49.3764757883     -167.3764817285       40.9247369491
atom        13.7888000000       13.8432000000       15.3399000000 C         0.0000000000         0.0000000000       104.3805951396      169.3161978896      -97.0315097507
atom        15.0439000000       15.7694000000       15.6744000000 N         0.0000000000         0.0000000000       -30.9410143334      200.1373502907     -191.4379654142
atom        14.3488000000       14.8125000000       14.6909000000 N         0.0000000000         0.0000000000       -74.2066052406     -148.3188189658      231.3962302761
energy     -1480.4026978150
charge 0
end
begin
comment generated by PY
lattice        30.0000000000         0.0000000000         0.0000000000
lattice         0.0000000000        30.0000000000         0.0000000000
lattice         0.0000000000         0.0000000000        30.0000000000
atom        16.2152000000       17.3187000000       15.5842000000 H         0.0000000000         0.0000000000       -71.3840318588     -101.1429950586      -41.5670393241
atom        16.1027000000       15.8508000000       14.3982000000 H         0.0000000000         0.0000000000       -50.6624023893       62.7542812677       79.9420800537
atom        15.4848000000       13.8797000000       15.3741000000 H         0.0000000000         0.0000000000      -125.5620408170        0.1405035176       -1.7909413395
atom        13.9187000000       12.8451000000       15.0104000000 H         0.0000000000         0.0000000000        49.3218082087      121.0524581030       12.0342684194
atom        15.6572000000       16.4531000000       15.1711000000 C         0.0000000000         0.0000000000      -205.9995862103      -59.2214988611       73.1161399668
atom        14.3933000000       13.8376000000       15.1918000000 C         0.0000000000         0.0000000000       -80.1426386335      191.9240562577      -90.9705391715
atom        14.4577000000       16.1490000000       15.6299000000 N         0.0000000000         0.0000000000       255.7069544952      -27.6921727176     -194.2334996729
atom        13.7520000000       14.9830000000       14.8931000000 N         0.0000000000         0.0000000000       228.7217602657     -187.8151155692      163.4697080074
energy     -1435.0207010074
charge 0
end
begin
comment generated by PY
lattice        30.0000000000         0.0000000000         0.0000000000
lattice         0.0000000000        30.0000000000         0.0000000000
lattice         0.0000000000         0.0000000000        30.0000000000
atom        16.1321000000       17.3054000000       14.8718000000 H         0.0000000000         0.0000000000       -56.9735720788      -73.4356848079       70.8485886433
atom        16.3193000000       15.8739000000       16.0261000000 H         0.0000000000         0.0000000000       -68.8595717194       53.7077279737      -72.2474763661
atom        15.2190000000       13.7542000000       14.3935000000 H         0.0000000000         0.0000000000       -76.2138043028        7.6878963289       40.1227740277
atom        13.7894000000       12.8252000000       14.9844000000 H         0.0000000000         0.0000000000        49.8923850374      116.7007396368       -0.9515204643
atom        15.6947000000       16.4908000000       15.4078000000 C         0.0000000000         0.0000000000      -214.1795081651      -53.1251694582      -38.2108525085
atom        14.3229000000       13.7766000000       14.8986000000 C         0.0000000000         0.0000000000       -66.8605128669      207.2697233680       74.7248894644
atom        14.4080000000       16.2700000000       15.1954000000 N         0.0000000000         0.0000000000       284.3405434809     -118.7935121213       19.3305661671
atom        13.8486000000       14.8916000000       15.3825000000 N         0.0000000000         0.0000000000       148.8540636752     -140.0122439806      -93.6171550848
energy     -1458.9873187507
charge 0
end
begin
comment generated by PY
lattice        30.0000000000         0.0000000000         0.0000000000
lattice         0.0000000000        30.0000000000         0.0000000000
lattice         0.0000000000         0.0000000000        30.0000000000
atom        15.8934000000       17.7795000000       15.0207000000 H         0.0000000000         0.0000000000       -51.1301703863     -101.7400355000       58.1612729120
atom        15.7980000000       16.8541000000       16.7028000000 H         0.0000000000         0.0000000000       -23.9979243580        0.2985642205     -126.0337285242
atom        14.1918000000       13.5870000000       13.7346000000 H         0.0000000000         0.0000000000       -24.3313183056       21.6441925699      114.9031790349
atom        13.5457000000       12.7532000000       15.1716000000 H         0.0000000000         0.0000000000        26.5473272657      117.1944452603      -16.8660992206
atom        15.5366000000       16.9143000000       15.5961000000 C         0.0000000000         0.0000000000      -147.0286587219     -178.9105895515      -56.4374250054
atom        13.9037000000       13.6997000000       14.8061000000 C         0.0000000000         0.0000000000        88.1151021532      178.3675117374       41.6954028938
atom        14.7619000000       16.0243000000       14.9954000000 N         0.0000000000         0.0000000000       124.5793025734       89.6356808277      113.5529569380
atom        14.1351000000       14.7533000000       15.4751000000 N         0.0000000000         0.0000000000         7.2457167190     -126.4896165037     -128.9754590285
energy     -1441.6272054109
charge 0
end
begin
comment generated by PY
lattice        30.0000000000         0.0000000000         0.0000000000
lattice         0.0000000000        30.0000000000         0.0000000000
lattice         0.0000000000         0.0000000000        30.0000000000
atom        15.8277000000       17.7393000000       15.1896000000 H         0.0000000000         0.0000000000       -58.8719010445     -102.4330566223       47.1062308973
atom        15.2502000000       16.7546000000       16.6910000000 H         0.0000000000         0.0000000000        11.3706124968        5.0874166261     -106.8315874676
atom        13.9484000000       13.9276000000       13.7421000000 H         0.0000000000         0.0000000000       -15.5920456175       -7.1418005404      112.9510300298
atom        13.2976000000       12.9549000000       15.1504000000 H         0.0000000000         0.0000000000        61.0792784355       91.9295951777      -19.2182076729
atom        15.3512000000       16.8618000000       15.6413000000 C         0.0000000000         0.0000000000       -89.7775390672     -165.7828486951     -142.0162190249
atom        13.8188000000       13.8068000000       14.8069000000 C         0.0000000000         0.0000000000       107.5134864341      196.5441798643       92.1119446325
atom        14.8802000000       15.9509000000       14.8268000000 N         0.0000000000         0.0000000000        72.8317599690      103.1000032222      246.9659419390
atom        14.3275000000       14.7510000000       15.5940000000 N         0.0000000000         0.0000000000       -88.5536046668     -121.3032690325     -231.0683333332
energy     -1467.2079302453
charge 0
end
begin
comment generated by PY
lattice        30.0000000000         0.0000000000         0.0000000000
lattice         0.0000000000        30.0000000000         0.0000000000
lattice         0.0000000000         0.0000000000        30.0000000000
atom        15.6555000000       17.7905000000       15.2938000000 H         0.0000000000         0.0000000000       -50.8143258558     -112.9977007398       22.9453543865
atom        15.0598000000       16.6475000000       16.6791000000 H         0.0000000000         0.0000000000        14.4989653072       20.2248676252     -122.0871941794
atom        13.5852000000       14.1774000000       13.8054000000 H         0.0000000000         0.0000000000        31.1018990452      -16.6694620162       98.2700112003
atom        13.3246000000       12.9618000000       15.1916000000 H         0.0000000000         0.0000000000        57.2166679032      120.7525394441      -36.1568622308
atom        15.2213000000       16.8328000000       15.5995000000 C         0.0000000000         0.0000000000       -28.3191414156     -161.8082292083      -82.3630162491
atom        13.7818000000       13.9365000000       14.8082000000 C         0.0000000000         0.0000000000        83.9833851003      114.4392400308      151.0118546769
atom        14.9863000000       15.8917000000       14.8115000000 N         0.0000000000         0.0000000000        -5.5583795530      124.7336959056      247.0724483126
atom        14.4146000000       14.7094000000       15.6300000000 N         0.0000000000         0.0000000000      -102.1090935920      -88.6744049204     -278.6924959170
energy     -1488.2298347353
charge 0
end
begin
comment generated by PY
lattice        30.0000000000         0.0000000000         0.0000000000
lattice         0.0000000000        30.0000000000         0.0000000000
lattice         0.0000000000         0.0000000000        30.0000000000
atom        15.4881000000       17.8400000000       15.4504000000 H         0.0000000000         0.0000000000       -54.0966403887     -110.6223543948      -13.6206232231
atom        14.2926000000       16.8771000000       16.3124000000 H         0.0000000000         0.0000000000        55.9191541845       -6.3279279282      -71.9495831984
atom        12.8770000000       14.6902000000       14.2403000000 H         0.0000000000         0.0000000000        87.6491325567      -62.5520042851       68.0626076417
atom        13.3493000000       13.0795000000       14.9950000000 H         0.0000000000         0.0000000000        16.6205336165       95.4623198570        6.0798257623
atom        14.9554000000       16.8982000000       15.5272000000 C         0.0000000000         0.0000000000        69.4736477898     -191.2668298921      -65.0431797159
atom        13.5436000000       14.0862000000       14.8871000000 C         0.0000000000         0.0000000000       193.8462958065      102.6507010864       90.9202296852
atom        15.2669000000       15.7886000000       14.9129000000 N         0.0000000000         0.0000000000      -149.1298393110      163.8499269647      223.2058648918
atom        14.6820000000       14.5631000000       15.5209000000 N         0.0000000000         0.0000000000      -220.2813842544        8.8059724709     -237.6555549040
energy     -1450.4061942221
charge 0
end
begin
comment generated by PY
lattice        30.0000000000         0.0000000000         0.0000000000
lattice         0.0000000000        30.0000000000         0.0000000000
lattice         0.0000000000         0.0000000000        30.0000000000
atom        15.7535000000       17.8111000000       15.2197000000 H         0.0000000000         0.0000000000       -63.4359337191      -99.4697582855       22.1322809483
atom        15.0594000000       17.0013000000       16.6870000000 H         0.0000000000         0.0000000000        10.9986361287      -13.3828737479     -118.7844020637
atom        13.3798000000       13.9629000000       13.7858000000 H         0.0000000000         0.0000000000        39.1780548919       23.4519203717      107.8112781037
atom        13.2298000000       12.8952000000       15.1650000000 H         0.0000000000         0.0000000000        68.0971159209      122.6542164005      -17.5080963124
atom        15.2246000000       16.9545000000       15.5990000000 C         0.0000000000         0.0000000000       -26.4912988461     -203.1353649725      -65.8673285074
atom        13.6834000000       13.9015000000       14.8202000000 C         0.0000000000         0.0000000000       127.9228159820       73.0966664207       91.8688337300
atom        14.9882000000       15.8931000000       14.8948000000 N         0.0000000000         0.0000000000        17.8250667911      142.9367433049      193.6030706681
atom        14.5088000000       14.6271000000       15.5449000000 N         0.0000000000         0.0000000000      -174.0944571494      -46.1522794918     -213.2560596273
energy     -1452.5461006718
charge 0
end
begin
comment generated by PY
lattice        30.0000000000         0.0000000000         0.0000000000
lattice         0.0000000000        30.0000000000         0.0000000000
lattice         0.0000000000         0.0000000000        30.0000000000
atom        16.1273000000       17.4895000000       15.1019000000 H         0.0000000000         0.0000000000       -69.5584919032      -99.2005788752       38.9920659516
atom        16.1790000000       15.9734000000       16.1971000000 H         0.0000000000         0.0000000000       -57.1447763606       60.9753443729      -78.9997045405
atom        14.9169000000       13.7533000000       13.9663000000 H         0.0000000000         0.0000000000       -59.6645114580       22.3387674103      102.9210646224
atom        14.1377000000       12.8255000000       15.3034000000 H         0.0000000000         0.0000000000        -3.6284327823      111.7303612106      -44.6344843758
atom        15.6450000000       16.5787000000       15.4722000000 C         0.0000000000         0.0000000000      -199.8128138208     -104.5912694595      -56.3886282390
atom        14.3059000000       13.7998000000       14.8719000000 C         0.0000000000         0.0000000000       -52.1262860480      165.0381200082       94.2004952589
atom        14.4652000000       16.1853000000       15.0407000000 N         0.0000000000         0.0000000000       229.5420846503      -25.5609530867      108.8864560499
atom        13.8557000000       14.8608000000       15.4840000000 N         0.0000000000         0.0000000000       212.3934277226     -130.7302915806     -164.9770877879
energy     -1456.0710338872
charge 0
end
begin
comment generated by PY
lattice        30.0000000000         0.0000000000         0.0000000000
lattice         0.0000000000        30.0000000000         0.0000000000
lattice         0.0000000000         0.0000000000        30.0000000000
atom        16.0171000000       17.5678000000       14.9058000000 H         0.0000000000         0.0000000000       -70.0761096108      -86.6428057472       75.4746662458
atom        15.8425000000       16.8168000000       16.6066000000 H         0.0000000000         0.0000000000       -31.1451253420      -26.5139366369     -112.2576157833
atom        14.2607000000       13.6449000000       13.7191000000 H         0.0000000000         0.0000000000       -25.0317266190       22.4555429338       98.6086874022
atom        13.6970000000       12.7940000000       15.3295000000 H         0.0000000000         0.0000000000        35.7116516281      116.8438288432      -71.6337050442
atom        15.5353000000       16.7846000000       15.5604000000 C         0.0000000000         0.0000000000      -156.9601729888      -86.0399764240     -100.2294987347
atom        14.0056000000       13.7309000000       14.7377000000 C         0.0000000000         0.0000000000        43.1732230655      160.7341563438      192.1345510592
atom        14.6099000000       16.0832000000       14.9733000000 N         0.0000000000         0.0000000000       206.5324713828       22.1710429980      156.7236304551
atom        14.1731000000       14.7896000000       15.5914000000 N         0.0000000000         0.0000000000        -2.2042445764     -123.0079123106     -238.8213156000
energy     -1430.6753038771
charge 0
end
begin
comment generated by PY
lattice        30.0000000000         0.0000000000         0.0000000000
lattice         0.0000000000        30.0000000000         0.0000000000
lattice         0.0000000000         0.0000000000        30.0000000000
atom        15.9656000000       17.5841000000       15.1823000000 H         0.0000000000         0.0000000000       -47.6941066732     -100.4332680877       14.9184585459
atom        16.4178000000       15.9566000000       15.7830000000 H         0.0000000000         0.0000000000       -86.5201221586       59.6704393302      -36.7509749062
atom        15.1513000000       13.7504000000       14.1930000000 H         0.0000000000         0.0000000000       -99.6750959608       12.8876812607       65.3629320430
atom        13.7217000000       12.9030000000       14.9261000000 H         0.0000000000         0.0000000000        48.6485624559       86.4446269219        4.4566450287
atom        15.6492000000       16.5936000000       15.3862000000 C         0.0000000000         0.0000000000      -183.4335342667      -94.6091957369      -31.7507201882
atom        14.2712000000       13.7747000000       14.8390000000 C         0.0000000000         0.0000000000       -30.3620035853      204.5562010902      103.4434752101
atom        14.4522000000       16.1988000000       15.1401000000 N         0.0000000000         0.0000000000       246.6943314516      -36.2979263164       84.6850361633
atom        13.9024000000       14.8453000000       15.5212000000 N         0.0000000000         0.0000000000       152.3416917976     -132.2185154015     -204.3652518967
energy     -1474.6553231083
charge 0
end
begin
comment generated by PY
lattice        30.0000000000         0.0000000000         0.0000000000
lattice         0.0000000000        30.0000000000         0.0000000000
lattice         0.0000000000         0.0000000000        30.0000000000