begin
comment generated by PY
lattice        30.0000000000         0.0000000000         0.0000000000
lattice         0.0000000000        30.0000000000         0.0000000000
lattice         0.0000000000         0.0000000000        30.0000000000
atom        13.8408000000       14.7011000000       12.9215000000 H         0.0000000000         0.0000000000        11.2795954293      -70.8041201151      102.2858608853
atom        14.6436000000       13.1609000000       13.5089000000 H         0.0000000000         0.0000000000       -86.7732981590       80.7599133001       26.6760682965
atom        15.0479000000       14.6953000000       16.9707000000 H         0.0000000000         0.0000000000       -66.6764841057       63.3856109683      -84.7940487355
atom        14.1696000000       16.1858000000       16.9522000000 H         0.0000000000         0.0000000000        29.3732516269      -93.2505663806      -91.0300835565
atom        17.0421000000       15.1931000000       16.3548000000 H         0.0000000000         0.0000000000       -31.9110548727       65.4710894469      -87.7295127916
atom        17.5295000000       16.2396000000       14.8796000000 H         0.0000000000         0.0000000000       -93.7730315029      -46.4350094335       63.7255025963
atom        14.4839000000       15.3584000000       16.2800000000 C         0.0000000000         0.0000000000       -10.9730608838      -17.8510372794      -49.3390368359
atom        16.7188000000       15.8086000000       15.4939000000 C         0.0000000000         0.0000000000       -99.6683068969        2.0435053612      -11.6403346327
atom        13.9554000000       13.9761000000       13.7260000000 C         0.0000000000         0.0000000000      -102.1087195243      -29.3560139127       66.0817702446
atom        13.0046000000       13.8532000000       14.7409000000 N         0.0000000000         0.0000000000       261.9081419613      167.2607968527       -2.6636078265
atom        13.2654000000       14.6460000000       15.8490000000 N         0.0000000000         0.0000000000       108.7137028725      -25.7366641966      -87.6743920461
atom        15.5811000000       15.9759000000       15.2337000000 N         0.0000000000         0.0000000000        80.6091409948      -95.4871046113      156.1018374627
energy     -2154.6205217728
charge 0
end
begin
comment generated by PY
lattice        30.0000000000         0.0000000000         0.0000000000
lattice         0.0000000000        30.0000000000         0.0000000000
lattice         0.0000000000         0.0000000000        30.0000000000
atom        11.8148000000       13.8971000000       13.4767000000 H         0.0000000000         0.0000000000        96.5870160744      -45.7342683117       63.0663836358
atom        12.5919000000       12.3098000000       13.6130000000 H         0.0000000000         0.0000000000        27.8211348449      108.5302739784       24.1287651637
atom        15.5729000000       14.2134000000       16.2049000000 H         0.0000000000         0.0000000000       -78.8743243448       88.8430732439      -25.2856016928
atom        14.6201000000       15.2803000000       17.2521000000 H         0.0000000000         0.0000000000        24.0865360848      -24.0909334338     -140.5847102116
atom        17.2434000000       15.7829000000       16.4165000000 H         0.0000000000         0.0000000000       -60.0185523251       81.6317061571      -70.4676540435
atom        17.2458000000       17.4144000000       15.4445000000 H         0.0000000000         0.0000000000       -70.2989064483      -95.8700351032       32.4977471210
atom        14.8475000000       15.0140000000       16.1340000000 C         0.0000000000         0.0000000000       -65.4508712540       22.4863656658       11.4875295866
atom        16.6672000000       16.5300000000       15.7713000000 C         0.0000000000         0.0000000000       -95.3915170722      -34.2583480370       -7.3465574267
atom        12.6631000000       13.3420000000       13.8808000000 C         0.0000000000         0.0000000000       137.8427313454       56.2233793120       22.1802081879
atom        13.8411000000       13.8613000000       14.4280000000 N         0.0000000000         0.0000000000      -305.1755699989      -25.3047553688       85.5995357096
atom        13.5464000000       14.5529000000       15.5984000000 N         0.0000000000         0.0000000000       251.7621307879      -19.8406130771     -108.6018823984
atom        15.5322000000       16.3729000000       15.4932000000 N         0.0000000000         0.0000000000       137.1105692454     -112.6159219651      113.3260133078
energy     -2164.2481281982
charge 0
end
begin
comment generated by PY
lattice        30.0000000000         0.0000000000         0.0000000000
lattice         0.0000000000        30.0000000000         0.0000000000
lattice         0.0000000000         0.0000000000        30.0000000000
atom        13.5687000000       14.0465000000       12.6581000000 H         0.0000000000         0.0000000000       -43.5313576151        7.2925120518      116.5015908641
atom        12.4148000000       15.0390000000       13.7757000000 H         0.0000000000         0.0000000000       102.3334406021      -80.2424640450       -3.4615159516
atom        15.5143000000       14.5001000000       16.8537000000 H         0.0000000000         0.0000000000       -83.2022843378       66.6425311050      -65.6183161508
atom        14.3186000000       15.6916000000       17.0784000000 H         0.0000000000         0.0000000000        35.5549773262      -52.1283487470      -74.0377613174
atom        17.0546000000       16.3187000000       16.3039000000 H         0.0000000000         0.0000000000       -67.8153335959        1.5508771440     -100.4960622658
atom        16.8755000000       17.1064000000       14.6067000000 H         0.0000000000         0.0000000000       -47.5693618116      -78.3057900236       81.8211243233
atom        14.7190000000       15.0867000000       16.3471000000 C         0.0000000000         0.0000000000       -40.9377075403      -57.5131418209      -60.2125278924
atom        16.4397000000       16.4197000000       15.3650000000 C         0.0000000000         0.0000000000      -102.9054718695       -2.3189970782      -13.9805372316
atom        13.2163000000       14.2722000000       13.6636000000 C         0.0000000000         0.0000000000        61.4958235533     -102.3945014601      180.3452819822
atom        13.6952000000       13.5896000000       14.7253000000 N         0.0000000000         0.0000000000       -87.0739341019      267.4463977169      -99.6234350685
atom        13.6599000000       14.1462000000       16.0577000000 N         0.0000000000         0.0000000000       143.9260896979       71.6689791696     -133.4723846510
atom        15.3484000000       16.0136000000       15.1694000000 N         0.0000000000         0.0000000000       129.7247966319      -41.6976840124      172.2348833594
energy     -2193.6441447666
charge 0
end
begin
comment generated by PY
lattice        30.0000000000         0.0000000000         0.0000000000
lattice         0.0000000000        30.0000000000         0.0000000000
lattice         0.0000000000         0.0000000000        30.0000000000
atom        12.2658000000       12.8444000000       13.0430000000 H         0.0000000000         0.0000000000        32.9705158838       59.0792791303      104.6529375396
atom        11.6611000000       13.2668000000       14.7381000000 H         0.0000000000         0.0000000000        93.6789071259        4.3885186276      -68.4251953652
atom        15.6528000000       13.8814000000       15.8034000000 H         0.0000000000         0.0000000000       -73.4402745967      124.0294622974       14.2012153705
atom        15.0281000000       15.0054000000       17.1725000000 H         0.0000000000         0.0000000000       -15.5578135013       -7.7600298262     -140.4314473506
atom        16.8806000000       16.5241000000       17.1149000000 H         0.0000000000         0.0000000000       -25.2876199909       19.7038571612     -116.4046899036
atom        17.0770000000       17.6457000000       15.5695000000 H         0.0000000000         0.0000000000       -46.6762662186     -107.3345286269       49.6698031221
atom        14.9949000000       14.8882000000       16.0162000000 C         0.0000000000         0.0000000000       -25.4041143180      -33.7766424650      -25.7389664207
atom        16.6297000000       16.7277000000       16.0327000000 C         0.0000000000         0.0000000000      -109.6475408797      -51.9290137129      -49.2038276466
atom        12.4527000000       13.3113000000       14.0071000000 C         0.0000000000         0.0000000000       154.2792228397      126.0541420936       40.3568683740
atom        13.5929000000       14.0243000000       14.2314000000 N         0.0000000000         0.0000000000      -232.5730468139     -105.0023262683      115.5629695964
atom        13.6342000000       14.5765000000       15.5734000000 N         0.0000000000         0.0000000000       180.1799375452      -12.8293649016      -94.9919768577
atom        15.8161000000       16.1316000000       15.4093000000 N         0.0000000000         0.0000000000        67.4781298638      -14.6230465698      170.7510864813
energy     -2164.3554430735
charge 0
end
begin
comment generated by PY
lattice        30.0000000000         0.0000000000         0.0000000000
lattice         0.0000000000        30.0000000000         0.0000000000
lattice         0.0000000000         0.0000000000        30.0000000000
atom        13.1187000000       13.4465000000       12.6806000000 H         0.0000000000         0.0000000000       -24.5007167305       35.7521890807      119.8717116837
atom        11.8072000000       14.1585000000       13.7117000000 H         0.0000000000         0.0000000000       111.0486712452      -36.2783305125       16.8324677392
atom        15.7284000000       13.9898000000       16.1665000000 H         0.0000000000         0.0000000000       -85.3178807558       91.7174020189       -2.8807511221
atom        14.8731000000       14.6985000000       17.4078000000 H         0.0000000000         0.0000000000        11.7338777526       33.9870570968     -118.7789087386
atom        17.2096000000       15.6841000000       15.2646000000 H         0.0000000000         0.0000000000       -78.0563640288       87.4831550193       -3.8059863449
atom        16.6030000000       17.4146000000       14.6933000000 H         0.0000000000         0.0000000000       -26.5148397849     -104.6314538612       73.2357988866
atom        14.9816000000       14.7747000000       16.3352000000 C         0.0000000000         0.0000000000       -79.2157762296       11.0387362797      -30.1569808798
atom        16.4117000000       16.4615000000       15.2651000000 C         0.0000000000         0.0000000000      -114.7771288277      -77.5589684053       42.0698555958
atom        12.8278000000       13.8003000000       13.6831000000 C         0.0000000000         0.0000000000       164.2349674292       82.9523668911       67.7018978819
atom        13.8650000000       14.0993000000       14.5053000000 N         0.0000000000         0.0000000000      -271.9607211623      -46.7138513035        6.8245951957
atom        13.6464000000       14.3356000000       15.8762000000 N         0.0000000000         0.0000000000       238.0826706403       22.4215443097     -145.9282174788
atom        15.3531000000       16.1877000000       15.7466000000 N         0.0000000000         0.0000000000       155.2427104523     -100.1697404926      -24.9852024187
energy     -2199.7520513148
charge 0
end
begin
comment generated by PY
lattice        30.0000000000         0.0000000000         0.0000000000
lattice         0.0000000000        30.0000000000         0.0000000000
lattice         0.0000000000         0.0000000000        30.0000000000
atom        13.0506000000       14.0670000000       12.6481000000 H         0.0000000000         0.0000000000         1.1401206786       -5.1571140174      111.7851388309
atom        12.3822000000       13.0944000000       14.1527000000 H         0.0000000000         0.0000000000        69.8366994628       97.0534781526      -54.3113056535
atom        15.5633000000       14.4564000000       17.1006000000 H         0.0000000000         0.0000000000       -97.3341552077       61.0472206075      -73.2325567054
atom        14.0264000000       15.4138000000       17.2057000000 H         0.0000000000         0.0000000000        83.9191323520      -50.7666344818      -74.1680799903
atom        16.6683000000       15.1144000000       14.7597000000 H         0.0000000000         0.0000000000       -52.5157445670      105.5873369893       20.9645990670
atom        16.6734000000       16.9422000000       14.3960000000 H         0.0000000000         0.0000000000       -56.0979865061      -85.5345514550       75.4491377259
atom        14.7398000000       14.9712000000       16.4945000000 C         0.0000000000         0.0000000000       -32.0778209925       -0.1484377010      -15.5715958029
atom        16.2216000000       16.1100000000       14.9878000000 C         0.0000000000         0.0000000000       -76.1331118409      -14.4719147677       84.6136362912
atom        13.0198000000       13.9118000000       13.6930000000 C         0.0000000000         0.0000000000       131.3155748261       27.8036581705      172.6238551195
atom        13.8887000000       14.4827000000       14.5302000000 N         0.0000000000         0.0000000000      -192.1226195985     -192.9497682194      -46.8675571453
atom        13.8878000000       13.9557000000       15.8619000000 N         0.0000000000         0.0000000000       133.9541241503      241.8090004953     -108.8859377091
atom        15.3636000000       16.2432000000       15.8047000000 N         0.0000000000         0.0000000000        86.1155902430     -184.2719737730      -92.3994570884
energy     -2199.6159199832
charge 0
end
begin
comment generated by PY
lattice        30.0000000000         0.0000000000         0.0000000000
lattice         0.0000000000        30.0000000000         0.0000000000
lattice         0.0000000000         0.0000000000        30.0000000000
atom        11.7694000000       13.9018000000       13.0789000000 H         0.0000000000         0.0000000000        97.2805540789      -22.8042066051       76.8781995768
atom        13.0407000000       12.6417000000       13.4260000000 H         0.0000000000         0.0000000000       -27.4309573749      105.6539576384       31.5147453081
atom        15.6130000000       14.7877000000       16.8675000000 H         0.0000000000         0.0000000000      -102.7534983200        6.7901184876      -68.9646691553
atom        13.9463000000       15.4826000000       16.8339000000 H         0.0000000000         0.0000000000        94.3044080027      -41.4882960310      -81.8078642834
atom        17.3344000000       16.0230000000       16.6309000000 H         0.0000000000         0.0000000000       -59.7332726734       27.3138040387      -91.4637318417
atom        17.3104000000       17.1854000000       15.2286000000 H         0.0000000000         0.0000000000       -56.2825678375      -77.2211174215       52.8962611267
atom        14.7696000000       15.0479000000       16.2328000000 C         0.0000000000         0.0000000000        12.9642144534      -33.7933802596      -34.0549872765
atom        16.7800000000       16.4255000000       15.7669000000 C         0.0000000000         0.0000000000      -126.2295638589       10.2467239385        3.2382134577
atom        12.6393000000       13.6068000000       13.6738000000 C         0.0000000000         0.0000000000        51.7530530272      103.4285413381      160.4969261995
atom        13.0433000000       14.3843000000       14.6729000000 N         0.0000000000         0.0000000000        40.2510551138     -217.8667706923     -145.9453957916
atom        14.2321000000       13.8904000000       15.4534000000 N         0.0000000000         0.0000000000       -50.3003636967      225.2497860223       13.1537248994
atom        15.6401000000       16.2654000000       15.5142000000 N         0.0000000000         0.0000000000       126.1771090854      -85.5095835148       84.0587777805
energy     -2181.3471262114
charge 0
end
begin
comment generated by PY
lattice        30.0000000000         0.0000000000         0.0000000000
lattice         0.0000000000        30.0000000000         0.0000000000
lattice         0.0000000000         0.0000000000        30.0000000000
atom        12.0872000000       14.3535000000       12.9173000000 H         0.0000000000         0.0000000000        47.6711330812      -24.4315186852       89.6957599872
atom        12.0689000000       12.9265000000       14.0831000000 H         0.0000000000         0.0000000000        39.7219655433      117.6759743059      -25.7405115691
atom        15.8350000000       14.0365000000       16.6966000000 H         0.0000000000         0.0000000000       -78.7798656484       70.8782840960      -59.2525240276
atom        14.5232000000       15.2046000000       17.1082000000 H         0.0000000000         0.0000000000        67.1660565899      -52.9575459255     -104.8931176449
atom        15.9314000000       17.1756000000       16.8017000000 H         0.0000000000         0.0000000000        40.3487204353      -27.3030036898      -97.3304187700
atom        16.7350000000       17.6023000000       15.1515000000 H         0.0000000000         0.0000000000       -49.2529245686      -80.0835419947       73.6342038933
atom        15.0958000000       14.6749000000       16.2303000000 C         0.0000000000         0.0000000000       -84.1427619719      -14.9752145227      -24.2750125259
atom        16.2416000000       16.8764000000       15.8082000000 C         0.0000000000         0.0000000000       -81.7038740603      -89.2447721350      -51.0286624044
atom        12.4585000000       13.9535000000       13.8033000000 C         0.0000000000         0.0000000000       165.5264490655       -9.1234268210      141.6478998887
atom        13.4424000000       14.4294000000       14.4886000000 N         0.0000000000         0.0000000000      -136.8803554437     -142.3749634317      -29.2508130473
atom        14.0761000000       13.7793000000       15.6351000000 N         0.0000000000         0.0000000000        69.2002451834      204.2413182873      -76.7999410132
atom        15.8649000000       15.8760000000       15.3230000000 N         0.0000000000         0.0000000000         1.1252348548       47.6978105163      163.5923772333
energy     -2184.2739536329
charge 0
end
begin
comment generated by PY
lattice        30.0000000000         0.0000000000         0.0000000000
lattice         0.0000000000        30.0000000000         0.0000000000
lattice         0.0000000000         0.0000000000        30.0000000000
atom        11.5567000000       14.0085000000       13.3978000000 H         0.0000000000         0.0000000000        85.2187214155      -21.0445212701       64.6720611457
atom        12.4251000000       12.6267000000       14.0865000000 H         0.0000000000         0.0000000000        -2.5116353840      103.2558617669        8.3380695803
atom        15.5501000000       14.4664000000       16.8823000000 H         0.0000000000         0.0000000000       -58.3598182820       22.4960613036     -105.6711732176
atom        14.2037000000       15.4150000000       16.6942000000 H         0.0000000000         0.0000000000        82.7032302691      -44.8261538055      -91.1015882609
atom        15.7168000000       16.8570000000       16.9549000000 H         0.0000000000         0.0000000000        76.1413315820        7.8029852500      -87.1978973772
atom        17.0768000000       17.6419000000       15.8197000000 H         0.0000000000         0.0000000000       -81.0965022909     -101.5524822564       23.0462088569
atom        14.9526000000       14.8493000000       16.0744000000 C         0.0000000000         0.0000000000       -60.3889820779      -51.0892192462      -19.7869127339
atom        16.3430000000       16.8050000000       16.0563000000 C         0.0000000000         0.0000000000       -59.8109696940      -79.2988620265      -56.2112980786
atom        12.3395000000       13.6713000000       14.0138000000 C         0.0000000000         0.0000000000       153.6008373085      107.7195826956       50.7459696965
atom        13.2141000000       14.4941000000       14.4765000000 N         0.0000000000         0.0000000000       -85.5850035411     -240.9493753010        4.7741842146
atom        14.2533000000       13.8559000000       15.2933000000 N         0.0000000000         0.0000000000        -1.0701691020      219.3088371446       21.7586723092
atom        16.1006000000       15.9085000000       15.3402000000 N         0.0000000000         0.0000000000       -48.8400771426       78.1770857448      186.6340338649
energy     -2205.4765596331
charge 0
end
begin
comment generated by PY
lattice        30.0000000000         0.0000000000         0.0000000000
lattice         0.0000000000        30.0000000000         0.0000000000
lattice         0.0000000000         0.0000000000        30.0000000000
atom        11.7181000000       14.3492000000       13.2869000000 H         0.0000000000         0.0000000000        99.1456700425      -61.3411092106       60.4777510591
atom        12.7819000000       12.7349000000       13.4713000000 H         0.0000000000         0.0000000000       -17.5349127873      124.5925538009       33.1394555972
atom        15.7516000000       14.4017000000       16.8753000000 H         0.0000000000         0.0000000000      -100.2538314602       42.0023096664      -94.3804983304
atom        14.2031000000       15.2617000000       16.9264000000 H         0.0000000000         0.0000000000        67.1552051354      -38.4692209838     -100.4764341769
atom        16.6655000000       16.5510000000       16.9802000000 H         0.0000000000         0.0000000000       -10.4845517192       11.1379042071     -118.1855704860
atom        17.1084000000       17.5545000000       15.4667000000 H         0.0000000000         0.0000000000       -74.1617435897     -102.5664068395       30.0708324426
atom        14.8896000000       14.8132000000       16.1970000000 C         0.0000000000         0.0000000000         1.5830996674      -63.2125371547      -47.8245936450
atom        16.5030000000       16.6846000000       15.8653000000 C         0.0000000000         0.0000000000       -92.0746900045      -52.9156012822        4.5154923314
atom        12.5565000000       13.8017000000       13.7627000000 C         0.0000000000         0.0000000000        81.0478087464       64.9032008968      173.0655752472
atom        13.1526000000       14.4050000000       14.7971000000 N         0.0000000000         0.0000000000        14.4075877273     -176.3763742752     -169.0203604774
atom        14.3428000000       13.8368000000       15.3299000000 N         0.0000000000         0.0000000000       -62.1234298714      223.9651310831       67.2541588924
atom        15.6820000000       16.0507000000       15.3163000000 N         0.0000000000         0.0000000000        93.2938650527       28.2800362129      161.3649684853
energy     -2178.3891350372
charge 0
end
begin
comment generated by PY
lattice        30.0000000000         0.0000000000         0.0000000000
lattice         0.0000000000        30.0000000000         0.0000000000
lattice         0.0000000000         0.0000000000        30.0000000000
atom        11.7996000000       14.6960000000       13.5336000000 H         0.0000000000         0.0000000000        48.5117449316      -68.8368187954       54.3142051173
atom        11.7489000000       13.3425000000       14.7413000000 H         0.0000000000         0.0000000000        59.2963134684       80.1128104600      -33.7697220125
atom        15.6394000000       14.1787000000       16.7769000000 H         0.0000000000         0.0000000000       -82.2845618868       68.4850176825      -80.7562666499
atom        14.2315000000       15.1896000000       16.6229000000 H         0.0000000000         0.0000000000        45.2539390397      -31.5700710986      -42.3826773474
atom        16.4051000000       16.9704000000       17.1440000000 H         0.0000000000         0.0000000000        -8.9785928986      -15.1687481171     -120.3371466391
atom        16.7985000000       17.7726000000       15.5102000000 H         0.0000000000         0.0000000000       -57.0102125100     -104.3891190264       39.6306177268
atom        14.9281000000       14.7106000000       16.1019000000 C         0.0000000000         0.0000000000         9.8337704169      -76.2356849619      -58.9747304715
atom        16.3090000000       16.8826000000       15.9877000000 C         0.0000000000         0.0000000000       -75.1883012844      -74.2380796739       -9.4164786693
atom        12.2754000000       14.0757000000       14.2119000000 C         0.0000000000         0.0000000000       243.8196198350        6.4657076326      -31.1140996692
atom        13.6275000000       14.1904000000       14.1846000000 N         0.0000000000         0.0000000000      -245.3808816201      -57.4062336022      184.5755586765
atom        14.3382000000       13.6441000000       15.3287000000 N         0.0000000000         0.0000000000         7.8395327986      232.5784349639      -37.7182153925
atom        15.7009000000       16.0486000000       15.4267000000 N         0.0000000000         0.0000000000        54.2886066492       40.2035175971      135.9490192097
energy     -2188.0064502180
charge 0
end
begin
comment generated by PY
lattice        30.0000000000         0.0000000000         0.0000000000
lattice         0.0000000000        30.0000000000         0.0000000000
lattice         0.0000000000         0.0000000000        30.0000000000
atom        11.6335000000       14.0616000000       13.2708000000 H         0.0000000000         0.0000000000       106.0576654143      -16.3651662346       65.5478163380
atom        13.1977000000       13.1247000000       13.1588000000 H         0.0000000000         0.0000000000       -55.6340661480       80.2724065056       65.5606658007
atom        15.8898000000       14.3619000000       16.8851000000 H         0.0000000000         0.0000000000       -98.1860852671       48.0610129440     -102.6907750809
atom        14.4344000000       15.4113000000       16.8760000000 H         0.0000000000         0.0000000000        58.8483721189      -63.7718006173      -94.0641374968
atom        16.6010000000       16.4885000000       17.0205000000 H         0.0000000000         0.0000000000       -23.6439164221       13.0132608904     -112.5795613063
atom        16.9622000000       17.5871000000       15.6397000000 H         0.0000000000         0.0000000000       -63.4786433816     -102.2807047076       17.3439897979
atom        15.0472000000       14.8379000000       16.1535000000 C         0.0000000000         0.0000000000       -41.1756124445      -13.2307305350      -52.4819493867
atom        16.4172000000       16.6770000000       15.9412000000 C         0.0000000000         0.0000000000       -49.1040076247      -44.5489157367      -41.5079328990
atom        12.6009000000       13.8347000000       13.7153000000 C         0.0000000000         0.0000000000        81.8623381692       65.0792647045      162.4769980207
atom        13.0360000000       14.3692000000       14.8315000000 N         0.0000000000         0.0000000000        58.9904841474     -176.4528161575     -193.3574322718
atom        14.2769000000       13.8455000000       15.3955000000 N         0.0000000000         0.0000000000       -38.5665371065      203.4267426851       45.8941662874
atom        15.7296000000       16.0220000000       15.2403000000 N         0.0000000000         0.0000000000        64.0313215446        6.7962231986      239.8572521967
energy     -2187.2154794772
charge 0
end
begin
comment generated by PY
lattice        30.0000000000         0.0000000000         0.0000000000
lattice         0.0000000000        30.0000000000         0.0000000000
lattice         0.0000000000         0.0000000000        30.0000000000
atom        11.5886000000       13.8590000000       13.3112000000 H         0.0000000000         0.0000000000        89.3896805549        0.0878196952       89.5092678374
atom        12.0058000000       12.7212000000       14.6590000000 H         0.0000000000         0.0000000000        57.0751215614      111.7979921285      -54.0175796719
atom        15.3825000000       14.5132000000       16.8119000000 H         0.0000000000         0.0000000000       -45.2813765336       23.9114715341      -81.7852965621
atom        14.0835000000       15.5341000000       16.5113000000 H         0.0000000000         0.0000000000        83.7876945046      -72.7859608191      -77.0811835459
atom        16.2810000000       16.8258000000       17.1811000000 H         0.0000000000         0.0000000000        -3.3835188456       -7.2295312232      -99.8331718404
atom        17.0903000000       17.5997000000       15.8436000000 H         0.0000000000         0.0000000000       -76.0869075840      -95.4363422454       10.5920961825
atom        14.8514000000       14.8896000000       16.0157000000 C         0.0000000000         0.0000000000         4.1540491647      -25.4599017079      -28.2654351106
atom        16.3904000000       16.7882000000       16.1196000000 C         0.0000000000         0.0000000000       -21.6005365549      -90.6270516679      -41.5164256190
atom        12.3164000000       13.6743000000       14.1125000000 C         0.0000000000         0.0000000000       118.6253256383       97.0803340186       35.7770184839
atom        13.3456000000       14.4825000000       14.3923000000 N         0.0000000000         0.0000000000      -126.2704590265     -303.3091127782       31.7499826766