begin
comment generated by PY
lattice        30.0000000000         0.0000000000         0.0000000000
lattice         0.0000000000        30.0000000000         0.0000000000
lattice         0.0000000000         0.0000000000        30.0000000000
atom        16.6519400000       17.0090300000       15.3301000000 H         0.0000000000         0.0000000000       -92.3596489590      -92.9626505311        7.9760031377
atom        15.6393200000       12.9691100000       15.3619800000 H         0.0000000000         0.0000000000       -37.2666252992      126.2709553245        3.8673369431
atom        12.6609800000       15.8678400000       15.0538800000 H         0.0000000000         0.0000000000       125.6391207851      -30.7179364813       36.2979580308
atom        15.8800300000       16.2294600000       15.3749800000 C         0.0000000000         0.0000000000      -105.8856931254     -110.3671090964      -74.3774007237
atom        15.3292500000       14.0237400000       15.3784700000 C         0.0000000000         0.0000000000       -43.3032000456      151.6425809856      -77.4348403339
atom        13.7095400000       15.6091100000       15.2953900000 C         0.0000000000         0.0000000000       147.9764426419      -37.8151501527      -65.8810539263
atom        14.5989700000       16.6271400000       15.2904500000 N         0.0000000000         0.0000000000        75.2537419124     -282.9154936676       40.6203708699
atom        14.0175000000       14.2876900000       15.2662200000 N         0.0000000000         0.0000000000       197.3509647391      209.4880729015       52.2690955610
atom        16.2966100000       14.9537000000       15.2553500000 N         0.0000000000         0.0000000000      -267.3876764199       67.3635019336       76.6411243133
energy     -2093.7441243547
charge 0
end
begin
comment generated by PY
lattice        30.0000000000         0.0000000000         0.0000000000
lattice         0.0000000000        30.0000000000         0.0000000000
lattice         0.0000000000         0.0000000000        30.0000000000
atom        16.5938100000       16.9962200000       15.4696800000 H         0.0000000000         0.0000000000       -82.9942838894      -89.0951393347      -38.8602794648
atom        15.5962000000       13.0244300000       15.4554900000 H         0.0000000000         0.0000000000       -31.7342183917      118.4859787681      -37.0598998187
atom        12.6927000000       15.8723500000       15.4690400000 H         0.0000000000         0.0000000000       113.3773375390      -30.6546733080      -55.0177866390
atom        15.8657100000       16.2202300000       15.2164800000 C         0.0000000000         0.0000000000       -85.4151575197      -96.1523612695      169.5398424893
atom        15.3172700000       14.0553200000       15.2135000000 C         0.0000000000         0.0000000000       -27.9813387016      114.3523375571      165.0674293451
atom        13.7066700000       15.6063000000       15.1432500000 C         0.0000000000         0.0000000000       137.1775117819      -35.2135991668      221.6668606343
atom        14.5931400000       16.5901000000       15.3890100000 N         0.0000000000         0.0000000000        80.5927937946     -259.3474835243     -148.4928052396
atom        14.0104100000       14.3121200000       15.3762300000 N         0.0000000000         0.0000000000       199.9195780631      200.5934072760     -142.8827261317
atom        16.3395200000       14.9461700000       15.4085000000 N         0.0000000000         0.0000000000      -302.9596183000       77.0640018280     -133.9480900240
energy     -2069.5720324108
charge 0
end
begin
comment generated by PY
lattice        30.0000000000         0.0000000000         0.0000000000
lattice         0.0000000000        30.0000000000         0.0000000000
lattice         0.0000000000         0.0000000000        30.0000000000
atom        16.6270100000       17.0013200000       15.1202700000 H         0.0000000000         0.0000000000       -86.3293369338      -94.5663200959       29.9926589243
atom        15.6215100000       13.0231700000       15.0638800000 H         0.0000000000         0.0000000000       -32.9510941638      121.5833838056       34.0766646810
atom        12.6289200000       15.8828500000       15.1661400000 H         0.0000000000         0.0000000000       121.8041111774      -31.7487143627       31.7722685964
atom        15.8929800000       16.2064100000       15.3055000000 C         0.0000000000         0.0000000000      -111.8965084931     -101.3521219130      -10.2148834951
atom        15.3386000000       14.0579400000       15.2830000000 C         0.0000000000         0.0000000000       -46.1060701735      131.3007799197       -0.3651150766
atom        13.6725300000       15.6116500000       15.3369200000 C         0.0000000000         0.0000000000       178.1679670305      -42.9097177707      -64.2043353942
atom        14.5895100000       16.5893000000       15.2657100000 N         0.0000000000         0.0000000000        73.3891994074     -261.1798168835       22.5800234844
atom        14.0017700000       14.3121300000       15.2775000000 N         0.0000000000         0.0000000000       199.5321453077      204.2645945438       11.3864247455
atom        16.3397400000       14.9509600000       15.4029600000 N         0.0000000000         0.0000000000      -295.5835935285       74.6309777890      -55.0266365792
energy     -2097.2649871551
charge 0
end
begin
comment generated by PY
lattice        30.0000000000         0.0000000000         0.0000000000
lattice         0.0000000000        30.0000000000         0.0000000000
lattice         0.0000000000         0.0000000000        30.0000000000
atom        16.6243200000       17.0149900000       15.5200800000 H         0.0000000000         0.0000000000       -89.9254098961      -93.8149058832      -26.6559797982
atom        15.6159400000       12.9475000000       15.4669900000 H         0.0000000000         0.0000000000       -33.8080188820      128.5157225166      -21.7341710307
atom        12.7709400000       15.8394300000       15.7632500000 H         0.0000000000         0.0000000000       113.6242018282      -27.7027265032      -66.8493976725
atom        15.8543900000       16.2396900000       15.3633700000 C         0.0000000000         0.0000000000       -92.1873544329     -108.0490222947      -55.4003871329
atom        15.3159900000       14.0083500000       15.3485400000 C         0.0000000000         0.0000000000       -38.5239660832      160.1248061448      -53.2501725057
atom        13.7757400000       15.5952700000       15.3522600000 C         0.0000000000         0.0000000000        95.8801686743      -27.0775169816      -23.2550674213
atom        14.5998300000       16.6517400000       15.1984600000 N         0.0000000000         0.0000000000        90.7981276891     -304.0300523539      100.1808696362
atom        14.0223400000       14.2808500000       15.2073300000 N         0.0000000000         0.0000000000       210.7791048709      210.1571536713       94.5784894429
atom        16.2632700000       14.9553800000       15.3213500000 N         0.0000000000         0.0000000000      -256.6355617390       61.9076193321       52.3797362554
energy     -2096.3933196535
charge 0
end
begin
comment generated by PY
lattice        30.0000000000         0.0000000000         0.0000000000
lattice         0.0000000000        30.0000000000         0.0000000000
lattice         0.0000000000         0.0000000000        30.0000000000
atom        16.6821800000       16.9859300000       15.4622400000 H         0.0000000000         0.0000000000       -97.0169537478      -85.9311007848      -34.5892454659
atom        15.6709000000       12.9708700000       15.4427500000 H         0.0000000000         0.0000000000       -43.1572392621      120.7641794912      -33.5555966564
atom        12.6524400000       15.8637900000       15.3270100000 H         0.0000000000         0.0000000000       126.5891883861      -29.4352387858       -8.2195585063
atom        15.8902300000       16.2426100000       15.2511900000 C         0.0000000000         0.0000000000      -112.3198730234     -122.9115658679      111.6848673250
atom        15.3337800000       14.0000800000       15.2418400000 C         0.0000000000         0.0000000000       -47.7820792060      171.6509544306      116.3021496687
atom        13.7147800000       15.6123400000       15.2596600000 C         0.0000000000         0.0000000000       142.8622022946      -36.9012650199       44.1046931589
atom        14.5976400000       16.6487400000       15.3089700000 N         0.0000000000         0.0000000000        78.5901155115     -289.4868439351      -45.8121546924
atom        14.0176900000       14.2738200000       15.3128000000 N         0.0000000000         0.0000000000       198.5770028255      207.3313816327      -50.0532556052
atom        16.2768000000       14.9540300000       15.4095900000 N         0.0000000000         0.0000000000      -246.3520946911       64.9188367764      -99.8668150020
energy     -2075.1059331634
charge 0
end
begin
comment generated by PY
lattice        30.0000000000         0.0000000000         0.0000000000
lattice         0.0000000000        30.0000000000         0.0000000000
lattice         0.0000000000         0.0000000000        30.0000000000
atom        16.4966500000       16.9893300000       14.9569400000 H         0.0000000000         0.0000000000       -60.1038678979      -91.0961783339       72.3704563968
atom        15.5206800000       13.0949500000       14.9379800000 H         0.0000000000         0.0000000000       -13.2618193765      108.1739956752       74.8821792237
atom        12.6698800000       15.8889300000       15.0028100000 H         0.0000000000         0.0000000000       120.6167707756      -35.0339479982       43.1366158182
atom        15.8728100000       16.1970100000       15.3865600000 C         0.0000000000         0.0000000000      -103.9556982989      -85.6765102990     -134.1357194381
atom        15.3270500000       14.0819800000       15.3839600000 C         0.0000000000         0.0000000000       -41.0255339462      108.4702754857     -135.7773130713
atom        13.7000200000       15.6013600000       15.2841900000 C         0.0000000000         0.0000000000       139.6911862778      -31.0387550825      -49.7796753623
atom        14.5873700000       16.5634800000       15.2744800000 N         0.0000000000         0.0000000000        77.9945247085     -258.2641411820       40.0920558876
atom        13.9946400000       14.3331200000       15.2744000000 N         0.0000000000         0.0000000000       206.6105503556      205.0774524447       39.5694531785
atom        16.3662300000       14.9473600000       15.3187000000 N         0.0000000000         0.0000000000      -326.5481104935       79.3657640447       49.6434001815
energy     -2104.6773863181
charge 0
end
begin
comment generated by PY
lattice        30.0000000000         0.0000000000         0.0000000000
lattice         0.0000000000        30.0000000000         0.0000000000
lattice         0.0000000000         0.0000000000        30.0000000000
atom        16.6292000000       16.9750100000       15.6465900000 H         0.0000000000         0.0000000000       -86.6829817200      -85.5397427984      -48.0872729545
atom        15.6286500000       13.0434000000       15.6418500000 H         0.0000000000         0.0000000000       -36.7466667706      115.1015851085      -47.8974142858
atom        12.5985600000       15.8978400000       15.3016300000 H         0.0000000000         0.0000000000       125.9345658459      -33.9703703193      -13.5591183058
atom        15.8977300000       16.2173000000       15.3449700000 C         0.0000000000         0.0000000000      -115.1553184188     -119.7037901204       12.7308908841
atom        15.3320500000       14.0516700000       15.3421100000 C         0.0000000000         0.0000000000       -39.5367230808      141.3416549636       14.4598192635
atom        13.6542100000       15.6159000000       15.2435100000 C         0.0000000000         0.0000000000       199.1098134710      -47.5298522255       19.0218079152
atom        14.5981800000       16.5877300000       15.2823600000 N         0.0000000000         0.0000000000        62.8305458139     -250.8245294126       15.5080875466
atom        14.0024600000       14.3058500000       15.2822600000 N         0.0000000000         0.0000000000       188.8236044548      204.9606131049       14.7442229511
atom        16.3491600000       14.9505700000       15.2885600000 N         0.0000000000         0.0000000000      -298.5528337778       76.1808581413       33.1036370747
energy     -2084.6272673412
charge 0
end
begin
comment generated by PY
lattice        30.0000000000         0.0000000000         0.0000000000
lattice         0.0000000000        30.0000000000         0.0000000000
lattice         0.0000000000         0.0000000000        30.0000000000
atom        16.6610900000       17.0005300000       15.3118200000 H         0.0000000000         0.0000000000       -98.8864376944      -92.6729545999        1.8515484484
atom        15.6437200000       12.9329200000       15.3095900000 H         0.0000000000         0.0000000000       -40.1112793645      130.6219669303        1.9828635093
atom        12.7632600000       15.8268700000       15.0271500000 H         0.0000000000         0.0000000000       122.6044963581      -26.2736327424       25.1421681337
atom        15.8431800000       16.2435200000       15.3083700000 C         0.0000000000         0.0000000000       -75.3868578984     -101.3958528621       31.3398134281
atom        15.3085800000       13.9974700000       15.3069200000 C         0.0000000000         0.0000000000       -31.7258639113      159.3562087926       32.8551978851
atom        13.8168100000       15.5915900000       15.2040100000 C         0.0000000000         0.0000000000        41.5485735191      -16.9579941878       50.3479411467
atom        14.5981400000       16.6786900000       15.3358800000 N         0.0000000000         0.0000000000       104.2475896392     -330.7766512178      -54.2786863360
atom        14.0239600000       14.2679500000       15.3373800000 N         0.0000000000         0.0000000000       225.3069596786      216.4944398585      -56.6217234043
atom        16.2400200000       14.9535000000       15.3426500000 N         0.0000000000         0.0000000000      -247.6285969763       61.6161160310      -32.6123373882
energy     -2112.0265776027
charge 0
end
begin
comment generated by PY
lattice        30.0000000000         0.0000000000         0.0000000000
lattice         0.0000000000        30.0000000000         0.0000000000
lattice         0.0000000000         0.0000000000        30.0000000000
atom        16.6506800000       16.9841900000       15.0952000000 H         0.0000000000         0.0000000000       -84.9353602154      -86.3754135491       48.2288890336
atom        15.6432300000       13.0021400000       15.0943400000 H         0.0000000000         0.0000000000       -35.1542043247      116.9635869099       49.8408114774
atom        12.6025700000       15.8964800000       15.0307400000 H         0.0000000000         0.0000000000       125.4824821335      -33.6092028385       36.5545101214
atom        15.9207000000       16.2252100000       15.3867400000 C         0.0000000000         0.0000000000      -133.7544947967     -129.2650445040     -110.7205165458
atom        15.3526500000       14.0174500000       15.3919100000 C         0.0000000000         0.0000000000       -54.9962962856      170.8494909647     -117.6673162400
atom        13.6460700000       15.6235000000       15.2799400000 C         0.0000000000         0.0000000000       205.3227430641      -48.3501840916      -47.9378780174
atom        14.5916200000       16.6119700000       15.2694700000 N         0.0000000000         0.0000000000        61.7391230718     -254.0595058007       40.0610458981
atom        14.0063500000       14.3003500000       15.2623200000 N         0.0000000000         0.0000000000       178.5894081975      195.2959985872       45.0635687553
atom        16.3185700000       14.9502700000       15.3094300000 N         0.0000000000         0.0000000000      -262.2922937254       68.5166593751       56.5700365346
energy     -2057.4977088731
charge 0
end
begin
comment generated by PY
lattice        30.0000000000         0.0000000000         0.0000000000
lattice         0.0000000000        30.0000000000         0.0000000000
lattice         0.0000000000         0.0000000000        30.0000000000
atom        16.4937000000       17.0074200000       15.6795500000 H         0.0000000000         0.0000000000       -63.8072252064      -95.7898961666      -68.8171551258
atom        15.4937900000       13.0909800000       15.7138500000 H         0.0000000000         0.0000000000       -11.4035309538      109.8220936445      -72.8992967945
atom        12.7089100000       15.8780400000       15.5061900000 H         0.0000000000         0.0000000000       115.5519245495      -32.4361731221      -41.7841668142
atom        15.8557400000       16.1985900000       15.2681400000 C         0.0000000000         0.0000000000       -83.8465479688      -74.4593396425      117.0455414332
atom        15.3107400000       14.0849600000       15.2716300000 C         0.0000000000         0.0000000000       -35.3140695383       94.7124343292      118.2606850946
atom        13.7313800000       15.5990600000       15.2523300000 C         0.0000000000         0.0000000000       109.3236337409      -28.0235642009       59.8859705053
atom        14.5921700000       16.5713000000       15.2924900000 N         0.0000000000         0.0000000000        84.6342436486     -270.7860502219      -26.8524271683
atom        13.9947500000       14.3260000000       15.2790300000 N         0.0000000000         0.0000000000       220.0868468252      213.7225007034      -20.5123807198
atom        16.3624100000       14.9444900000       15.3783700000 N         0.0000000000         0.0000000000      -335.2154515164       83.2259178562      -64.3240684474
energy     -2117.1909972269
charge 0
end
begin
comment generated by PY
lattice        30.0000000000         0.0000000000         0.0000000000
lattice         0.0000000000        30.0000000000         0.0000000000
lattice         0.0000000000         0.0000000000        30.0000000000
atom        16.7365500000       16.9667600000       15.2229500000 H         0.0000000000         0.0000000000      -105.1769749723      -80.9575808130       13.2425771964
atom        15.7136500000       12.9479000000       15.2579400000 H         0.0000000000         0.0000000000       -52.0323886147      124.0313433499       10.2241683529
atom        12.6387600000       15.8630800000       15.3702400000 H         0.0000000000         0.0000000000       133.5568011949      -29.9423299007      -14.2212168936
atom        15.8985100000       16.2563500000       15.3047900000 C         0.0000000000         0.0000000000      -123.4258399088     -144.1967382204        1.7010454562
atom        15.3283800000       13.9835100000       15.3158600000 C         0.0000000000         0.0000000000       -43.6440238022      193.2673496529       -5.5501641587
atom        13.7216000000       15.6103900000       15.2842300000 C         0.0000000000         0.0000000000       139.1276960014      -37.5189514518       13.1497852760
atom        14.6133200000       16.6625800000       15.2791500000 N         0.0000000000         0.0000000000        77.0376884376     -288.3887076750        3.1245510441
atom        14.0215300000       14.2622400000       15.2607300000 N         0.0000000000         0.0000000000       194.4865542673      205.6372429826       13.9883542524
atom        16.2430000000       14.9589200000       15.3881400000 N         0.0000000000         0.0000000000      -219.9452321392       58.0909324107      -35.6542478105
energy     -2078.8980747700
charge 0
end
begin
comment generated by PY
lattice        30.0000000000         0.0000000000         0.0000000000
lattice         0.0000000000        30.0000000000         0.0000000000
lattice         0.0000000000         0.0000000000        30.0000000000
atom        16.4975000000       17.0138300000       15.1075400000 H         0.0000000000         0.0000000000       -65.0502110114     -103.3413610872       38.6477244516
atom        15.5037800000       13.0455700000       15.1183300000 H         0.0000000000         0.0000000000       -11.0971000736      120.4714873823       37.3403411712
atom        12.7622000000       15.8800900000       14.9741600000 H         0.0000000000         0.0000000000       100.5492071058      -32.2626900117       62.6182685194
atom        15.8400900000       16.1737700000       15.3442600000 C         0.0000000000         0.0000000000       -62.7019440829      -43.6876710452      -64.2231935413
atom        15.3143200000       14.0921100000       15.3464600000 C         0.0000000000         0.0000000000       -34.3568236985       76.7991823087      -65.0392335467
atom        13.7383300000       15.6019500000       15.3399600000 C         0.0000000000         0.0000000000        97.4314853721      -20.7461606626     -131.8001822780
atom        14.5792600000       16.5869100000       15.2538900000 N         0.0000000000         0.0000000000        98.2394062849     -293.1301124540       59.6029890376
atom        13.9950500000       14.3338500000       15.2457800000 N         0.0000000000         0.0000000000       230.5479859117      210.7738148785       62.6807857075
atom        16.3746100000       14.9363400000       15.3669300000 N         0.0000000000         0.0000000000      -353.5603764797       85.0946854319        0.1650366189
energy     -2125.5329591368
charge 0
end
begin
comment generated by PY
lattice        30.0000000000         0.0000000000         0.0000000000
lattice         0.0000000000        30.0000000000         0.0000000000
lattice         0.0000000000         0.0000000000        30.0000000000
atom        16.7281800000       16.9608600000       15.5523300000 H         0.0000000000         0.0000000000      -102.0997510354      -83.5264492722      -40.0278277885
atom        15.6883300000       12.9953200000       15.5361800000 H         0.0000000000         0.0000000000       -47.4540860123      123.0681866925      -38.9742105486
atom        12.5868400000       15.8690800000       15.5580600000 H         0.0000000000         0.0000000000       123.1380688916      -26.4131508530      -60.6340786061
atom        15.9339000000       16.2198900000       15.2965300000 C         0.0000000000         0.0000000000      -133.1589896041     -133.6642381132       65.2635952112
atom        15.3523500000       14.0307600000       15.2900700000 C         0.0000000000         0.0000000000       -47.8257818482      159.7455432986       68.9846039763
atom        13.6195300000       15.6249700000       15.1941300000 C         0.0000000000         0.0000000000       229.2533343045      -60.4871480672      130.7573172837
atom        14.6001400000       16.6038800000       15.3048300000 N         0.0000000000         0.0000000000        61.4169785233     -235.6831547539      -38.7976316296
atom        14.0094900000       14.3068900000       15.3068900000 N         0.0000000000         0.0000000000       172.5058267780      186.3015190252      -43.0088763708
atom        16.3109800000       14.9478200000       15.3659900000 N         0.0000000000         0.0000000000      -255.7626016060       70.6348092862      -43.5486784724
energy     -2049.2001482433
charge 0
end
begin
comment generated by PY
lattice        30.0000000000         0.0000000000         0.0000000000
lattice         0.0000000000        30.0000000000         0.0000000000
lattice         0.0000000000         0.0000000000        30.0000000000
atom        16.6175000000       17.0072800000       15.3736000000 H         0.0000000000         0.0000000000       -85.1024229003      -89.4283080504        0.1451092290
atom        15.6036600000       12.9726200000       15.3412100000 H         0.0000000000         0.0000000000       -32.5867655630      119.7211952396        3.0328271772
atom        12.7782800000       15.8677900000       15.0773200000 H         0.0000000000         0.0000000000       121.8305623781      -34.4119389358       30.3582468964
atom        15.8450900000       16.2542600000       15.3641100000 C         0.0000000000         0.0000000000       -76.7147438794     -110.8954553426      -46.6605398137
atom        15.2897000000       14.0054100000       15.3549700000 C         0.0000000000         0.0000000000       -26.4882478868      152.2192372045      -44.0603225407
atom        13.8256100000       15.5912400000       15.2771700000 C         0.0000000000         0.0000000000        27.6431414312      -10.4539468290      -47.9105241485
atom        14.6184300000       16.6661500000       15.2758400000 N         0.0000000000         0.0000000000        93.0795888651     -324.3686242904       33.6369078364
atom        14.0034400000       14.2536300000       15.2840300000 N         0.0000000000         0.0000000000       238.8654827810      234.8592714490       27.3982308969
atom        16.2521700000       14.9584000000       15.2939700000 N         0.0000000000         0.0000000000      -260.5321448473       62.7810999235       44.0846248900
energy     -2120.6648532520
charge 0
end
begin
comment generated by PY
lattice        30.0000000000         0.0000000000         0.0000000000
lattice         0.0000000000        30.0000000000         0.0000000000
lattice         0.0000000000         0.0000000000        30.0000000000
atom        16.6966700000       16.9846500000       15.2316000000 H         0.0000000000         0.0000000000       -99.9912087398      -93.1368127084       21.0984301377
atom        15.6447700000       12.9746000000       15.2092700000 H         0.0000000000         0.0000000000       -40.5598735608      129.3855617082       22.1765571333
atom        12.5926700000       15.8754300000       14.8871700000 H         0.0000000000         0.0000000000       124.7857204387      -28.7002000312       56.1020698276
atom        15.9112600000       16.1958600000       15.3442100000 C         0.0000000000         0.0000000000      -108.4481198888     -104.2577743897      -28.1872547089
atom        15.3456300000       14.0425600000       15.3320600000 C         0.0000000000         0.0000000000       -44.0864216551      142.5771723830      -20.6619425282
atom        13.6265600000       15.6266000000       15.2436500000 C         0.0000000000         0.0000000000       226.7721036513      -55.6765275091      -18.0543300601
atom        14.5890300000       16.6041800000       15.3108000000 N         0.0000000000         0.0000000000        61.2433445804     -252.6117221520      -14.1499411495
atom        14.0140900000       14.3279900000       15.3186100000 N         0.0000000000         0.0000000000       170.5871574187      185.1847917182      -21.0262867652
atom        16.3416000000       14.9348300000       15.3230700000 N         0.0000000000         0.0000000000      -290.2963452912       77.2077230206        2.6816030145
energy     -2066.8247809349
charge 0
end
begin
comment generated by PY
lattice        30.0000000000         0.0000000000         0.0000000000
lattice         0.0000000000        30.0000000000         0.0000000000
lattice         0.0000000000         0.0000000000        30.0000000000
atom        16.4772900000       17.0183100000       15.6180300000 H         0.0000000000         0.0000000000       -57.7754765741      -98.6308538769      -48.5469391944
atom        15.5073000000       13.0449100000       15.6015000000 H         0.0000000000         0.0000000000       -13.3538906590      115.8851672640      -45.9144413415
atom        12.7669500000       15.8953400000       15.6333000000 H         0.0000000000         0.0000000000       106.5607516020      -34.4886156474      -75.9965975516
atom        15.8478700000       16.1986600000       15.3081300000 C         0.0000000000         0.0000000000       -86.3565824416      -74.3050703318       56.0976171076
atom        15.3111900000       14.0685000000       15.3085100000 C         0.0000000000         0.0000000000       -40.3424995092      109.9051253900       50.2996506709
atom        13.7607300000       15.6075700000       15.2065200000 C         0.0000000000         0.0000000000        75.9131555191      -27.7156159848      138.9303995043
atom        14.5915800000       16.5804800000       15.2983900000 N         0.0000000000         0.0000000000       103.7527361479     -274.6150897003      -32.9596187401
atom        13.9864600000       14.3295600000       15.2959200000 N         0.0000000000         0.0000000000       239.7861118085      204.3394648975      -29.8653470763
atom        16.3485300000       14.9397900000       15.3322700000 N         0.0000000000         0.0000000000      -328.1310593011       79.6131122332      -12.0477981897
energy     -2125.5397984889
charge 0
end
begin
comment generated by PY
lattice        30.0000000000         0.0000000000         0.0000000000
lattice         0.0000000000        30.0000000000         0.0000000000
lattice         0.0000000000         0.0000000000        30.0000000000
atom        16.8040700000       16.9267500000       15.2356700000 H         0.0000000000         0.0000000000      -115.3785367774      -73.0559119535       17.7454212199
atom        15.7058800000       12.9698700000       15.2557500000 H         0.0000000000         0.0000000000       -52.4410268383      123.5333988103       14.6366586984
atom        12.6645400000       15.8358900000       15.1196500000 H         0.0000000000         0.0000000000       117.0241538984      -21.0332870115       37.1503464502