begin
comment generated by PY
lattice        30.0000000000         0.0000000000         0.0000000000
lattice         0.0000000000        30.0000000000         0.0000000000
lattice         0.0000000000         0.0000000000        30.0000000000
atom        16.1530800000       14.3397000000       14.6357200000 H         0.0000000000         0.0000000000       -28.6920155952       -6.9586040757       -3.5700281613
atom        14.3165400000       12.9363500000       15.5893800000 H         0.0000000000         0.0000000000         8.0150908544       68.3661790885     -114.4418392363
atom        13.3914300000       13.4475800000       14.0204600000 H         0.0000000000         0.0000000000       106.9371160488       19.9224810995       72.8684496867
atom        14.2916200000       13.5253400000       14.6388900000 C         0.0000000000         0.0000000000        84.1719563250       71.9331082361      -33.0453168001
atom        13.7278200000       16.0287800000       14.6060000000 O         0.0000000000         0.0000000000       305.1963987021      -56.8341310188      -18.6796684111
atom        15.8948600000       16.5348000000       14.7328300000 O         0.0000000000         0.0000000000      -234.7976732326     -185.2946574185      -51.8571377152
atom        15.2654600000       14.3583700000       14.2763800000 N         0.0000000000         0.0000000000      -191.9282604234      -37.1322077590      106.7759659314
atom        14.9348100000       15.7851500000       14.5525500000 N         0.0000000000         0.0000000000       -48.8864377506      125.9831733101       41.9378444318
energy     -1498.3506511864
charge 0
end
begin
comment generated by PY
lattice        30.0000000000         0.0000000000         0.0000000000
lattice         0.0000000000        30.0000000000         0.0000000000
lattice         0.0000000000         0.0000000000        30.0000000000
atom        16.2265900000       14.0640200000       14.8024300000 H         0.0000000000         0.0000000000      -121.7733886295       40.9303234152      -60.3365069929
atom        14.6567200000       12.4448800000       14.8587000000 H         0.0000000000         0.0000000000       -49.0917049626      110.4895995250      -24.1237352018
atom        13.2974900000       13.6035700000       14.1414900000 H         0.0000000000         0.0000000000       108.3006439721      -19.0263175873       60.6271414491
atom        14.2494500000       13.4206800000       14.6339600000 C         0.0000000000         0.0000000000       144.1725469896       91.9394430293     -103.2252865005
atom        13.7282600000       16.1101300000       14.5984300000 O         0.0000000000         0.0000000000       304.8611086128      -71.7442675533       -7.9116451672
atom        15.9118100000       16.5630600000       14.6947900000 O         0.0000000000         0.0000000000      -235.6735180812     -177.0719928753      -31.0437921436
atom        15.2573800000       14.3120600000       14.3221700000 N         0.0000000000         0.0000000000      -110.9378726639      -95.2051938636      144.4564488048
atom        14.9363500000       15.8396500000       14.5947400000 N         0.0000000000         0.0000000000       -39.8839279610      119.6587970179       21.5565333303
energy     -1472.1909570700
charge 0
end
begin
comment generated by PY
lattice        30.0000000000         0.0000000000         0.0000000000
lattice         0.0000000000        30.0000000000         0.0000000000
lattice         0.0000000000         0.0000000000        30.0000000000
atom        16.1473700000       14.2201200000       14.5056600000 H         0.0000000000         0.0000000000       -38.9363136827        8.5115647929       -3.0811583925
atom        14.5460500000       12.2652400000       14.4167200000 H         0.0000000000         0.0000000000       -16.1323546273      134.1028509264       11.2083696741
atom        13.2696200000       13.6838500000       14.7339200000 H         0.0000000000         0.0000000000       122.9772672175      -38.8674156676      -32.6705224920
atom        14.2976000000       13.3388000000       14.5033700000 C         0.0000000000         0.0000000000        71.2491759237      147.0035077624       18.6565378215
atom        13.7508900000       16.1614600000       14.5706900000 O         0.0000000000         0.0000000000       271.1732812413      -97.2217619437       27.6753239091
atom        15.9375800000       16.5654700000       14.6411600000 O         0.0000000000         0.0000000000      -229.0215718207     -195.7488895770        7.2632253913
atom        15.1889600000       14.3451600000       14.4763800000 N         0.0000000000         0.0000000000      -152.5021655091      -76.8848955674       25.6136291386
atom        14.9237000000       15.8113100000       14.6560000000 N         0.0000000000         0.0000000000       -28.7969874044      119.0877899841      -54.6727913649
energy     -1490.5951173835
charge 0
end
begin
comment generated by PY
lattice        30.0000000000         0.0000000000         0.0000000000
lattice         0.0000000000        30.0000000000         0.0000000000
lattice         0.0000000000         0.0000000000        30.0000000000
atom        16.1213300000       14.3399900000       14.1145700000 H         0.0000000000         0.0000000000      -109.2094357831       11.4566672193       72.7916759322
atom        14.8319300000       12.5695600000       14.1586300000 H         0.0000000000         0.0000000000       -64.7966052011       95.7750131259       29.0952130165
atom        13.3099000000       13.3951300000       14.8692700000 H         0.0000000000         0.0000000000       112.0974370097       19.1794586739      -50.7509481974
atom        14.2861100000       13.4485700000       14.4215800000 C         0.0000000000         0.0000000000       137.9425169217       79.3153683208       66.6829116918
atom        13.7322400000       16.1529600000       14.5880900000 O         0.0000000000         0.0000000000       279.8845229466     -102.1246839906       10.1197839631
atom        15.9579600000       16.4536600000       14.6131900000 O         0.0000000000         0.0000000000      -241.0615605029     -150.9424987814       -2.6847099205
atom        15.1915800000       14.4213400000       14.6468000000 N         0.0000000000         0.0000000000      -111.8284462023      -62.9840699313     -125.6035150381
atom        14.9075400000       15.7687700000       14.6045200000 N         0.0000000000         0.0000000000        -3.0033703435      110.3388698427        0.3658892991
energy     -1507.8695806555
charge 0
end
begin
comment generated by PY
lattice        30.0000000000         0.0000000000         0.0000000000
lattice         0.0000000000        30.0000000000         0.0000000000
lattice         0.0000000000         0.0000000000        30.0000000000
atom        16.1957800000       14.2709000000       14.6617500000 H         0.0000000000         0.0000000000       -89.5095452646       22.2093898221       -1.3291971668
atom        14.5803000000       12.6011900000       13.7412000000 H         0.0000000000         0.0000000000       -25.3287381597      106.8852623780       81.5227619170
atom        13.2578200000       13.7098200000       14.6786300000 H         0.0000000000         0.0000000000       126.6995482885      -22.5361643574      -45.5437189633
atom        14.3023200000       13.4872300000       14.3623600000 C         0.0000000000         0.0000000000        80.4333490312      117.6885523365       51.6846425449
atom        13.6886700000       16.1138600000       14.6531300000 O         0.0000000000         0.0000000000       307.9435354523      -57.6352225559      -35.4726372917
atom        15.9989100000       16.4014600000       14.5716400000 O         0.0000000000         0.0000000000      -264.4708386811      -99.5135312272      -11.6378770159
atom        15.1944300000       14.4250300000       14.7379800000 N         0.0000000000         0.0000000000      -136.9106271035      -98.9681181673     -119.2714532187
atom        14.9101500000       15.8164600000       14.5416500000 N         0.0000000000         0.0000000000         1.1650008970       31.8706694959       80.0398239108
energy     -1488.3551844555
charge 0
end
begin
comment generated by PY
lattice        30.0000000000         0.0000000000         0.0000000000
lattice         0.0000000000        30.0000000000         0.0000000000
lattice         0.0000000000         0.0000000000        30.0000000000
atom        16.1516100000       14.1495700000       14.9159200000 H         0.0000000000         0.0000000000       -79.6278129230       14.9362850598      -23.4439013787
atom        14.5571200000       12.5134100000       13.9302700000 H         0.0000000000         0.0000000000       -30.9024510008      106.0494473157       56.6662213508
atom        13.2975700000       13.8924000000       14.0182400000 H         0.0000000000         0.0000000000       110.1641761436      -43.0089974233       44.6676479930
atom        14.2314000000       13.4551400000       14.3520000000 C         0.0000000000         0.0000000000       123.2685056537      125.7269257367      -20.0921802516
atom        13.7685800000       16.1442700000       14.6619100000 O         0.0000000000         0.0000000000       275.9632180749     -103.9452413529       -2.1917325816
atom        15.9569800000       16.5232500000       14.5139500000 O         0.0000000000         0.0000000000      -228.2104042702     -193.9417537508       42.5457412694
atom        15.1818100000       14.3242800000       14.7068300000 N         0.0000000000         0.0000000000      -144.0098340061      -28.4394847206      -65.0703138774
atom        14.9421700000       15.7727000000       14.6530900000 N         0.0000000000         0.0000000000       -26.6956011237      122.6034172439      -33.0913977413
energy     -1498.9003824447
charge 0
end
begin
comment generated by PY
lattice        30.0000000000         0.0000000000         0.0000000000
lattice         0.0000000000        30.0000000000         0.0000000000
lattice         0.0000000000         0.0000000000        30.0000000000
atom        16.1738800000       14.0422000000       14.7158700000 H         0.0000000000         0.0000000000      -121.0032242242       47.5667623460       -3.1014319982
atom        14.3488100000       12.4767700000       14.7861600000 H         0.0000000000         0.0000000000       -14.7503076433      115.3872296371      -62.1341245795
atom        13.3248100000       13.7077500000       13.7047100000 H         0.0000000000         0.0000000000       101.8373032325      -18.1181450055       77.9329114738
atom        14.1942200000       13.4593600000       14.3102600000 C         0.0000000000         0.0000000000       111.5107039087      101.1038943698       59.1764255690
atom        13.8196800000       16.1253700000       14.6751900000 O         0.0000000000         0.0000000000       251.6130815575      -99.4656920602       17.6565085158
atom        15.9287800000       16.5395000000       14.5211000000 O         0.0000000000         0.0000000000      -189.8845079350     -204.5241069885       57.0132420539
atom        15.1520600000       14.3637300000       14.6346700000 N         0.0000000000         0.0000000000       -77.2524840267      -83.4833817214      -51.0237065117
atom        14.9890000000       15.7561300000       14.7132700000 N         0.0000000000         0.0000000000       -62.0277491895      141.5560238827      -95.5214887614
energy     -1497.2949222408
charge 0
end
begin
comment generated by PY
lattice        30.0000000000         0.0000000000         0.0000000000
lattice         0.0000000000        30.0000000000         0.0000000000
lattice         0.0000000000         0.0000000000        30.0000000000
atom        16.0943100000       14.1737900000       14.8790100000 H         0.0000000000         0.0000000000       -42.1893041291       16.5452724777      -16.2068769600
atom        14.0360300000       12.6115000000       15.0504200000 H         0.0000000000         0.0000000000        31.1991082424       96.7378666026      -85.7961649877
atom        13.3669900000       13.9788200000       13.8706100000 H         0.0000000000         0.0000000000        95.5595981767      -63.1083945826       58.9165400401
atom        14.2093500000       13.4581900000       14.3431100000 C         0.0000000000         0.0000000000        78.7237591596      173.5397936763       65.7519570435
atom        13.7164500000       16.1018300000       14.7301700000 O         0.0000000000         0.0000000000       313.1380985131      -53.1191733486      -44.4096790195
atom        16.0294600000       16.4615000000       14.5914600000 O         0.0000000000         0.0000000000      -275.3067049124     -138.7173186895       -0.0954415265
atom        15.2085200000       14.3756000000       14.5334600000 N         0.0000000000         0.0000000000      -194.3815939773      -68.2344232609      -15.7470892798
atom        14.9474800000       15.8229200000       14.6006800000 N         0.0000000000         0.0000000000        -6.7439118914       36.3833892102       37.6100658433
energy     -1473.7064884570
charge 0
end
begin
comment generated by PY
lattice        30.0000000000         0.0000000000         0.0000000000
lattice         0.0000000000        30.0000000000         0.0000000000
lattice         0.0000000000         0.0000000000        30.0000000000
atom        16.1329400000       14.2167000000       14.9435700000 H         0.0000000000         0.0000000000      -105.1637666736       17.3266794448      -67.2579580643
atom        14.4516400000       12.5396400000       14.6271200000 H         0.0000000000         0.0000000000       -27.9947951287      114.8545850007      -23.1703774289
atom        13.1864000000       13.8534200000       14.2323400000 H         0.0000000000         0.0000000000       122.2298036951      -19.3135936639       23.2532331772
atom        14.1947800000       13.5599300000       14.4379700000 C         0.0000000000         0.0000000000       125.6214858678       54.4794196671        0.7649046011
atom        13.7645000000       16.1532500000       14.7156900000 O         0.0000000000         0.0000000000       273.1277644390     -108.8021363144      -56.5190324609
atom        15.9867600000       16.4086700000       14.6740000000 O         0.0000000000         0.0000000000      -236.4310960526     -138.8672516579      -33.9287756185
atom        15.2155700000       14.3652100000       14.4264900000 N         0.0000000000         0.0000000000      -170.4010470194      -16.0174907464       75.8694824526
atom        14.9272700000       15.7586600000       14.5482800000 N         0.0000000000         0.0000000000        19.0425304032       96.3284493867       80.9771053098
energy     -1515.6960109075
charge 0
end
begin
comment generated by PY
lattice        30.0000000000         0.0000000000         0.0000000000
lattice         0.0000000000        30.0000000000         0.0000000000
lattice         0.0000000000         0.0000000000        30.0000000000
atom        16.1089700000       14.1370000000       14.2315900000 H         0.0000000000         0.0000000000       -92.7614282893       34.1500524577       20.4277504746
atom        14.4198200000       12.4324000000       14.1287200000 H         0.0000000000         0.0000000000       -25.5474138350      125.7085491532       46.8360577840
atom        13.1423400000       13.8677000000       14.5423500000 H         0.0000000000         0.0000000000       122.7222501229      -49.4872905734       -1.9812819737
atom        14.1611200000       13.4463400000       14.5052700000 C         0.0000000000         0.0000000000        97.0219251407      142.6059399424      -67.3349561841
atom        13.8054000000       16.1528900000       14.6327800000 O         0.0000000000         0.0000000000       267.0076383442      -93.7704684186        9.3023317055
atom        16.0055400000       16.4636300000       14.7126400000 O         0.0000000000         0.0000000000      -228.8992950135     -173.4503692629      -16.7206785230
atom        15.1309100000       14.4051000000       14.3937800000 N         0.0000000000         0.0000000000      -102.7378012438      -85.1779551502       33.9671013393
atom        14.9797300000       15.7661600000       14.6381600000 N         0.0000000000         0.0000000000       -36.7789711116       99.4205194299      -24.5460752852
energy     -1503.0831730225
charge 0
end
begin
comment generated by PY
lattice        30.0000000000         0.0000000000         0.0000000000
lattice         0.0000000000        30.0000000000         0.0000000000
lattice         0.0000000000         0.0000000000        30.0000000000
atom        15.8452300000       14.1928400000       13.6793700000 H         0.0000000000         0.0000000000       -52.7521209625       12.6823474891       63.8335742925
atom        14.2960400000       12.5099900000       13.9530000000 H         0.0000000000         0.0000000000       -17.6487676161      100.4123387058       56.9899953374
atom        13.3196700000       13.5683300000       15.2064500000 H         0.0000000000         0.0000000000        97.4297626478      -11.9420033688      -87.2959549852
atom        14.1257700000       13.4167100000       14.4815200000 C         0.0000000000         0.0000000000       140.3745509141      113.6091211945        7.9279301818
atom        13.7622300000       16.1814900000       14.5897800000 O         0.0000000000         0.0000000000       307.0749442144      -72.0203399331       33.5519762723
atom        16.0772300000       16.4776200000       14.7648700000 O         0.0000000000         0.0000000000      -281.9081666558     -156.4062079031      -23.6030878079
atom        15.1476300000       14.3100200000       14.3976200000 N         0.0000000000         0.0000000000      -170.0157362195      -69.5837569905      -10.1863143620
atom        14.9757500000       15.8498400000       14.6487100000 N         0.0000000000         0.0000000000       -22.5420052301       83.1981982061      -41.2395252388
energy     -1464.5034751748
charge 0
end
begin
comment generated by PY
lattice        30.0000000000         0.0000000000         0.0000000000
lattice         0.0000000000        30.0000000000         0.0000000000
lattice         0.0000000000         0.0000000000        30.0000000000
atom        15.8500200000       14.2349300000       13.5864200000 H         0.0000000000         0.0000000000       -83.8168786610        1.3946369251       91.6807427859
atom        13.9870300000       12.6208600000       13.7687300000 H         0.0000000000         0.0000000000        25.4851182300      103.7492943711       80.7214649999
atom        13.7288900000       13.3059200000       15.4915700000 H         0.0000000000         0.0000000000        39.6256783702       31.4617635052     -115.6864974403
atom        14.1507000000       13.4607000000       14.4930100000 C         0.0000000000         0.0000000000       152.8612563116       37.9322260104       14.3992721920
atom        13.8404500000       16.2710400000       14.6332200000 O         0.0000000000         0.0000000000       249.5129060718     -112.2819189541      -38.3273303951
atom        15.9767800000       16.4063100000       14.8338000000 O         0.0000000000         0.0000000000      -224.5311287460     -131.1217427480      -90.7442763673
atom        15.1634800000       14.2643800000       14.4052400000 N         0.0000000000         0.0000000000      -149.3985869395      -91.4735581003      -75.8481790072
atom        14.9564300000       15.8447100000       14.5022500000 N         0.0000000000         0.0000000000        -9.7479041590      160.3367388771      133.7909285402
energy     -1500.2170254410
charge 0
end
begin
comment generated by PY
lattice        30.0000000000         0.0000000000         0.0000000000
lattice         0.0000000000        30.0000000000         0.0000000000
lattice         0.0000000000         0.0000000000        30.0000000000
atom        15.7321400000       14.0112000000       13.5051000000 H         0.0000000000         0.0000000000       -30.8848909497       15.3839498610       40.9258060738
atom        13.7183400000       12.8541200000       13.6796200000 H         0.0000000000         0.0000000000        58.1920664796       43.2236435052       97.2029047814
atom        13.4478700000       13.7200800000       15.3177000000 H         0.0000000000         0.0000000000        91.8974921142      -44.4617181326      -87.0466052116
atom        14.1690800000       13.3584900000       14.5400000000 C         0.0000000000         0.0000000000        89.0058762981      197.2027523060      -71.3918025347
atom        13.8011900000       16.3551400000       14.6560600000 O         0.0000000000         0.0000000000       285.3831992306     -121.3332248927      -40.2642182492
atom        16.0050500000       16.3898300000       14.8700500000 O         0.0000000000         0.0000000000      -260.9701471247     -106.1440978347      -96.2711993267
atom        15.2150500000       14.1752400000       14.3253400000 N         0.0000000000         0.0000000000      -232.3557029795     -156.6048266282       25.7625777578
atom        14.9493300000       15.9139900000       14.4988900000 N         0.0000000000         0.0000000000        -0.2697601546      172.7189395790      131.0448712893
energy     -1468.1643891740
charge 0
end
begin
comment generated by PY
lattice        30.0000000000         0.0000000000         0.0000000000
lattice         0.0000000000        30.0000000000         0.0000000000
lattice         0.0000000000         0.0000000000        30.0000000000
atom        15.7608900000       13.8440700000       13.4069900000 H         0.0000000000         0.0000000000       -64.0732355471        3.6249123626       91.1930673048
atom        13.8905700000       12.3938600000       14.0163500000 H         0.0000000000         0.0000000000        18.0919365323      115.9603895836       36.0155662114
atom        13.5260200000       13.5773000000       15.3665600000 H         0.0000000000         0.0000000000        63.1983639138      -11.5662865786      -97.9952042049
atom        14.0962400000       13.3754100000       14.4727900000 C         0.0000000000         0.0000000000       196.1340822106       33.5792142128        8.6828260376
atom        13.7831800000       16.3631300000       14.6618500000 O         0.0000000000         0.0000000000       306.7880946090      -62.7254931141       -8.9057372720
atom        16.0651400000       16.4624100000       14.8857200000 O         0.0000000000         0.0000000000      -291.5871224511      -80.3815790543      -69.5942304890
atom        15.1903400000       13.9896300000       14.2871100000 N         0.0000000000         0.0000000000      -220.3522748310     -123.2444192712      -31.8672273809
atom        14.9685100000       16.0480300000       14.5497200000 N         0.0000000000         0.0000000000        -8.2089072318      124.7895438591       72.4865793289
energy     -1479.3214197838
charge 0
end
begin
comment generated by PY
lattice        30.0000000000         0.0000000000         0.0000000000
lattice         0.0000000000        30.0000000000         0.0000000000
lattice         0.0000000000         0.0000000000        30.0000000000
atom        15.6757400000       13.3875800000       13.5007100000 H         0.0000000000         0.0000000000       -43.4465542742       43.7382253320       58.0178826326
atom        13.6449500000       12.4684200000       13.8072400000 H         0.0000000000         0.0000000000        57.2244073652       80.4177612795       75.6714479365
atom        13.3822800000       13.6596300000       15.2527000000 H         0.0000000000         0.0000000000        84.4389119102      -46.0937581485      -88.8844466661
atom        14.0815000000       13.2491500000       14.4683800000 C         0.0000000000         0.0000000000       115.9641337471      120.2751159017      -41.8920054396
atom        13.8593500000       16.4044600000       14.7241900000 O         0.0000000000         0.0000000000       270.9081298218      -74.1625886247      -57.8888371806
atom        16.0240800000       16.6010800000       14.9332200000 O         0.0000000000         0.0000000000      -242.4880033632     -119.0572720247     -110.5968431835
atom        15.1539900000       13.8497300000       14.2527000000 N         0.0000000000         0.0000000000      -216.1412099614     -188.1951665744       -1.5170929020
atom        15.0112700000       16.1119500000       14.4787700000 N         0.0000000000         0.0000000000       -26.4982405991      183.0789895525      167.0747214464
energy     -1493.8316815930
charge 0
end
begin
comment generated by PY
lattice        30.0000000000         0.0000000000         0.0000000000
lattice         0.0000000000        30.0000000000         0.0000000000
lattice         0.0000000000         0.0000000000        30.0000000000
atom        15.7195100000       13.3203500000       13.4431800000 H         0.0000000000         0.0000000000       -54.8573307801       12.1093069775       68.5529996847
atom        13.6174100000       12.2511000000       13.9314500000 H         0.0000000000         0.0000000000        38.5255773449      103.0305662842       49.0757552671
atom        13.3677500000       13.6359100000       15.1975600000 H         0.0000000000         0.0000000000        69.2040687419      -51.9177360367      -85.0683075862
atom        13.9807400000       13.1639500000       14.4279000000 C         0.0000000000         0.0000000000       210.0556771948       69.8250806922      -21.0535929773
atom        13.8727200000       16.4116500000       14.7696600000 O         0.0000000000         0.0000000000       288.8564538891      -42.3048810629      -84.8330124426
atom        16.0498500000       16.7295900000       14.9699500000 O         0.0000000000         0.0000000000      -247.2880099470     -120.8781391061     -136.6738818505
atom        15.1569400000       13.6531200000       14.2354900000 N         0.0000000000         0.0000000000      -263.1060366641     -123.6397128536      -12.0655724649
atom        15.0499000000       16.2485900000       14.4359600000 N         0.0000000000         0.0000000000       -41.3979403658      153.7573436064      222.0654591295
energy     -1471.3671869447
charge 0
end
begin
comment generated by PY
lattice        30.0000000000         0.0000000000         0.0000000000
lattice         0.0000000000        30.0000000000         0.0000000000
lattice         0.0000000000         0.0000000000        30.0000000000
atom        15.5974000000       12.7809300000       13.5993300000 H         0.0000000000         0.0000000000       -42.7869204751       74.6455564344       50.1366771100
atom        13.5174300000       12.2003200000       13.8488700000 H         0.0000000000         0.0000000000        49.3658079464       92.2183798342       65.9880277802
atom        13.2695100000       13.6121400000       15.1116700000 H         0.0000000000         0.0000000000        76.3045219432      -59.7685977967      -83.8908863493
atom        13.9320900000       13.0626100000       14.4038800000 C         0.0000000000         0.0000000000       186.2036014546       87.0414431897      -35.7764165598
atom        13.8862800000       16.3923700000       14.7742700000 O         0.0000000000         0.0000000000       294.1107568848       19.4485521241      -49.5355820784
atom        16.0936200000       16.8257200000       14.9645400000 O         0.0000000000         0.0000000000      -266.0103207205      -90.3488054215      -98.4341560124
atom        15.1448200000       13.5128700000       14.2024900000 N         0.0000000000         0.0000000000      -269.2707008456     -190.0952264566        3.7103159388
atom        15.0611300000       16.4318000000       14.4913600000 N         0.0000000000         0.0000000000       -27.8948382414       66.8665386787      147.7941494614
energy     -1473.0198882076
charge 0
end
begin
comment generated by PY
lattice        30.0000000000         0.0000000000         0.0000000000
lattice         0.0000000000        30.0000000000         0.0000000000
lattice         0.0000000000         0.0000000000        30.0000000000
atom        15.6777100000       12.7282400000       13.6042900000 H         0.0000000000         0.0000000000       -48.8953716997       25.1839401398       46.4401416610
atom        13.4382200000       12.0139300000       14.0545500000 H         0.0000000000         0.0000000000        52.3248911661      107.9228057051       28.6430422828
atom        13.2483400000       13.7400200000       14.8675300000 H         0.0000000000         0.0000000000        74.4454535335      -88.8299284692      -54.5037486335
atom        13.8997200000       12.9869200000       14.3576100000 C         0.0000000000         0.0000000000       176.5393563877       54.2839355901      -19.3823033209
atom        13.9340400000       16.4070700000       14.8384000000 O         0.0000000000         0.0000000000       290.2708441603       38.7971070378     -102.0591513346
atom        16.0936100000       16.9439200000       15.0101300000 O         0.0000000000         0.0000000000      -256.2325085898      -97.2572988922     -147.0020142554
atom        15.0948900000       13.3084300000       14.1850900000 N         0.0000000000         0.0000000000      -254.1162936881      -94.1891799756       -1.5205099755
atom        15.0856800000       16.5572500000       14.4254600000 N         0.0000000000         0.0000000000       -34.3700472150       54.0611151754      249.3612611806
energy     -1478.4167269843
charge 0
end
begin
comment generated by PY
lattice        30.0000000000         0.0000000000         0.0000000000
lattice         0.0000000000        30.0000000000         0.0000000000
lattice         0.0000000000         0.0000000000        30.0000000000