begin
comment generated by PY
lattice        30.0000000000         0.0000000000         0.0000000000
lattice         0.0000000000        30.0000000000         0.0000000000
lattice         0.0000000000         0.0000000000        30.0000000000
atom        15.8606000000       14.6679000000       14.0908000000 H         0.0000000000         0.0000000000       -60.5577540223       47.1686429061       84.6421675612
atom        15.7853000000       15.3682000000       15.8601000000 H         0.0000000000         0.0000000000       -52.7712837063      -25.1861826330      -98.1580912961
atom        15.2510000000       15.1313000000       14.9063000000 C         0.0000000000         0.0000000000      -143.1917503354       31.1756655401      -18.4275094483
atom        14.1165000000       15.3654000000       14.7654000000 N         0.0000000000         0.0000000000       256.5209111246      -53.1581258131       31.9434331833
energy      -711.2368269561
charge 0
end
begin
comment generated by PY
lattice        30.0000000000         0.0000000000         0.0000000000
lattice         0.0000000000        30.0000000000         0.0000000000
lattice         0.0000000000         0.0000000000        30.0000000000
atom        15.8758000000       14.5741000000       14.1563000000 H         0.0000000000         0.0000000000       -62.6784784768       66.0343942855       72.5649749227
atom        15.7718000000       15.2658000000       15.9376000000 H         0.0000000000         0.0000000000       -51.5574057614       -5.4673250876     -110.4633840244
atom        15.2573000000       15.1559000000       14.8922000000 C         0.0000000000         0.0000000000      -156.4676433389      -19.0737831259       12.0468894088
atom        14.1110000000       15.3583000000       14.7673000000 N         0.0000000000         0.0000000000       270.7033275771      -41.4932630115       25.8516196929
energy      -702.4791757351
charge 0
end
begin
comment generated by PY
lattice        30.0000000000         0.0000000000         0.0000000000
lattice         0.0000000000        30.0000000000         0.0000000000
lattice         0.0000000000         0.0000000000        30.0000000000
atom        15.8702000000       14.8632000000       13.9431000000 H         0.0000000000         0.0000000000       -61.1026834444       10.5311176746      106.4129963385
atom        15.8049000000       15.5604000000       15.7459000000 H         0.0000000000         0.0000000000       -53.8801788587      -60.7781839134      -74.7086190884
atom        15.2352000000       15.0855000000       14.9369000000 C         0.0000000000         0.0000000000      -118.3232987737      126.0459748980      -76.5336897232
atom        14.1280000000       15.3769000000       14.7579000000 N         0.0000000000         0.0000000000       233.3068841374      -75.7989086593       44.8293124731
energy      -701.1312930058
charge 0
end
begin
comment generated by PY
lattice        30.0000000000         0.0000000000         0.0000000000
lattice         0.0000000000        30.0000000000         0.0000000000
lattice         0.0000000000         0.0000000000        30.0000000000
atom        15.8140000000       14.5438000000       14.1753000000 H         0.0000000000         0.0000000000       -49.1916177469       69.4684272112       67.6291561485
atom        15.6954000000       15.2475000000       15.9053000000 H         0.0000000000         0.0000000000       -35.8534474802       -0.9554839884     -104.3902169879
atom        15.2643000000       15.1645000000       14.8905000000 C         0.0000000000         0.0000000000      -177.4993652621      -34.0251657718       14.9265943942
atom        14.1149000000       15.3544000000       14.7697000000 N         0.0000000000         0.0000000000       262.5442304892      -34.4877805115       21.8343664452
energy      -711.9689681254
charge 0
end
begin
comment generated by PY
lattice        30.0000000000         0.0000000000         0.0000000000
lattice         0.0000000000        30.0000000000         0.0000000000
lattice         0.0000000000         0.0000000000        30.0000000000
atom        15.8241000000       14.7004000000       14.1396000000 H         0.0000000000         0.0000000000       -48.8326610092       34.0458784293       68.3675713579
atom        15.8452000000       15.4258000000       15.8557000000 H         0.0000000000         0.0000000000       -63.8316507648      -33.0322254749      -96.9341323135
atom        15.2464000000       15.1231000000       14.9074000000 C         0.0000000000         0.0000000000      -136.5113493751       53.9258248116       -7.7060247604
atom        14.1188000000       15.3660000000       14.7613000000 N         0.0000000000         0.0000000000       249.1754611492      -54.9394777660       36.2726857161
energy      -714.3030609482
charge 0
end
begin
comment generated by PY
lattice        30.0000000000         0.0000000000         0.0000000000
lattice         0.0000000000        30.0000000000         0.0000000000
lattice         0.0000000000         0.0000000000        30.0000000000
atom        15.9551000000       14.7446000000       14.0612000000 H         0.0000000000         0.0000000000       -78.1317332386       29.2369958813       89.4182124473
atom        15.7590000000       15.4845000000       15.7190000000 H         0.0000000000         0.0000000000       -38.1702669478      -37.5142864146      -55.3490070846
atom        15.2486000000       15.1017000000       14.9193000000 C         0.0000000000         0.0000000000      -151.8048255780       83.6966968885      -68.7593537490
atom        14.1137000000       15.3770000000       14.7665000000 N         0.0000000000         0.0000000000       268.1067027038      -75.4190063552       34.6905383863
energy      -710.1287978270
charge 0
end
begin
comment generated by PY
lattice        30.0000000000         0.0000000000         0.0000000000
lattice         0.0000000000        30.0000000000         0.0000000000
lattice         0.0000000000         0.0000000000        30.0000000000
atom        15.7542000000       14.4940000000       14.1683000000 H         0.0000000000         0.0000000000       -41.1380714165       76.6306544003       69.5512880879
atom        15.7267000000       15.2396000000       15.8577000000 H         0.0000000000         0.0000000000       -36.6172499272        3.9552115201      -91.7620375183
atom        15.2649000000       15.1752000000       14.8991000000 C         0.0000000000         0.0000000000      -180.2592195097      -53.3636296682       -4.7624498483
atom        14.1164000000       15.3493000000       14.7662000000 N         0.0000000000         0.0000000000       258.0151408534      -27.2221931917       26.9734262182
energy      -714.0160206474
charge 0
end
begin
comment generated by PY
lattice        30.0000000000         0.0000000000         0.0000000000
lattice         0.0000000000        30.0000000000         0.0000000000
lattice         0.0000000000         0.0000000000        30.0000000000
atom        15.8778000000       14.8591000000       14.1153000000 H         0.0000000000         0.0000000000       -55.1405608283        1.6775195394       71.5613932433
atom        15.7813000000       15.6708000000       15.7651000000 H         0.0000000000         0.0000000000       -52.1721364236      -72.7378206735      -78.1903742074
atom        15.2373000000       15.0715000000       14.9113000000 C         0.0000000000         0.0000000000      -128.0925428670      153.8447100738      -27.7058857687
atom        14.1273000000       15.3814000000       14.7662000000 N         0.0000000000         0.0000000000       235.4052170583      -82.7841089397       34.3348667327
energy      -708.0420776648
charge 0
end
begin
comment generated by PY
lattice        30.0000000000         0.0000000000         0.0000000000
lattice         0.0000000000        30.0000000000         0.0000000000
lattice         0.0000000000         0.0000000000        30.0000000000
atom        15.7751000000       14.4174000000       14.1674000000 H         0.0000000000         0.0000000000       -46.6976278018       86.9533119913       69.3930124264
atom        15.7903000000       15.2157000000       15.8567000000 H         0.0000000000         0.0000000000       -49.6218449106       10.5132849403      -94.6920384907
atom        15.2635000000       15.1865000000       14.9077000000 C         0.0000000000         0.0000000000      -176.2725977263      -73.0377779917       -8.2739885886
atom        14.1116000000       15.3468000000       14.7590000000 N         0.0000000000         0.0000000000       272.5915704387      -24.4288389398       33.5726947134
energy      -701.9265477785
charge 0
end
begin
comment generated by PY
lattice        30.0000000000         0.0000000000         0.0000000000
lattice         0.0000000000        30.0000000000         0.0000000000
lattice         0.0000000000         0.0000000000        30.0000000000
atom        15.9113000000       14.7408000000       14.0260000000 H         0.0000000000         0.0000000000       -68.5143293133       31.2280330201       99.5448723606
atom        15.7553000000       15.5596000000       15.8361000000 H         0.0000000000         0.0000000000       -47.5413575475      -57.3277538124      -94.2483669803
atom        15.2392000000       15.1016000000       14.9179000000 C         0.0000000000         0.0000000000      -119.8617429534       93.7219871677      -39.0752911083
atom        14.1252000000       15.3720000000       14.7618000000 N         0.0000000000         0.0000000000       235.9179298142      -67.6225663754       33.7786857280
energy      -701.6528751422
charge 0
end
begin
comment generated by PY
lattice        30.0000000000         0.0000000000         0.0000000000
lattice         0.0000000000        30.0000000000         0.0000000000
lattice         0.0000000000         0.0000000000        30.0000000000
atom        15.8106000000       14.5678000000       14.1720000000 H         0.0000000000         0.0000000000       -49.3348332855       61.9965230482       67.4320252036
atom        15.8225000000       15.3054000000       15.9393000000 H         0.0000000000         0.0000000000       -57.6729358436      -10.2847872575     -110.5398375116
atom        15.2584000000       15.1535000000       14.8923000000 C         0.0000000000         0.0000000000      -164.8521372586      -10.4846168297       13.4226738164
atom        14.1111000000       15.3580000000       14.7660000000 N         0.0000000000         0.0000000000       271.8604063876      -41.2271189609       29.6852384916
energy      -703.4366316178
charge 0
end
begin
comment generated by PY
lattice        30.0000000000         0.0000000000         0.0000000000
lattice         0.0000000000        30.0000000000         0.0000000000
lattice         0.0000000000         0.0000000000        30.0000000000
atom        15.9661000000       14.7078000000       14.0806000000 H         0.0000000000         0.0000000000       -79.7721281979       38.2446610634       85.0165358855
atom        15.8339000000       15.4283000000       15.8036000000 H         0.0000000000         0.0000000000       -63.3925476402      -33.8249246821      -85.0429059047
atom        15.2429000000       15.1205000000       14.9190000000 C         0.0000000000         0.0000000000      -121.2941985610       58.4444250699      -37.7088154310
atom        14.1125000000       15.3675000000       14.7593000000 N         0.0000000000         0.0000000000       264.4590974596      -62.8642845117       37.7351854502
energy      -704.0375459923
charge 0
end
begin
comment generated by PY
lattice        30.0000000000         0.0000000000         0.0000000000
lattice         0.0000000000        30.0000000000         0.0000000000
lattice         0.0000000000         0.0000000000        30.0000000000
atom        15.7791000000       14.4665000000       14.2301000000 H         0.0000000000         0.0000000000       -48.6858658777       79.2125968749       55.4891091289
atom        15.8011000000       15.1899000000       15.8152000000 H         0.0000000000         0.0000000000       -51.0403280357       16.8059808900      -79.5997217252
atom        15.2569000000       15.1844000000       14.9069000000 C         0.0000000000         0.0000000000      -153.5371450352      -73.8010549811       -8.0844596699
atom        14.1162000000       15.3470000000       14.7582000000 N         0.0000000000         0.0000000000       253.2631389486      -22.2175527838       32.1956022663
energy      -714.9421914227
charge 0
end
begin
comment generated by PY
lattice        30.0000000000         0.0000000000         0.0000000000
lattice         0.0000000000        30.0000000000         0.0000000000
lattice         0.0000000000         0.0000000000        30.0000000000
atom        15.9711000000       14.7518000000       14.1885000000 H         0.0000000000         0.0000000000       -78.8973151130       23.8900593544       64.7832369686
atom        15.8021000000       15.5485000000       15.7788000000 H         0.0000000000         0.0000000000       -59.3101052243      -49.6895699444      -80.3224512544
atom        15.2408000000       15.1022000000       14.9045000000 C         0.0000000000         0.0000000000      -115.3168075943       96.8337127674      -13.5870084259
atom        14.1162000000       15.3715000000       14.7658000000 N         0.0000000000         0.0000000000       253.5235279316      -71.0343252380       29.1262227116
energy      -712.3686476869
charge 0
end
begin
comment generated by PY
lattice        30.0000000000         0.0000000000         0.0000000000
lattice         0.0000000000        30.0000000000         0.0000000000
lattice         0.0000000000         0.0000000000        30.0000000000
atom        15.9107000000       14.6997000000       14.0945000000 H         0.0000000000         0.0000000000       -73.1070928932       37.3980730975       83.4350349631
atom        15.9271000000       15.4469000000       15.7668000000 H         0.0000000000         0.0000000000       -79.5382436249      -34.3205734859      -78.9809283258
atom        15.2431000000       15.1230000000       14.9302000000 C         0.0000000000         0.0000000000      -119.0853740107       58.0911750534      -53.6092550559
atom        14.1096000000       15.3646000000       14.7514000000 N         0.0000000000         0.0000000000       271.7308105288      -61.1686746651       49.1551484186
energy      -703.5293925144
charge 0
end
begin
comment generated by PY
lattice        30.0000000000         0.0000000000         0.0000000000
lattice         0.0000000000        30.0000000000         0.0000000000
lattice         0.0000000000         0.0000000000        30.0000000000
atom        15.8816000000       14.4079000000       14.2268000000 H         0.0000000000         0.0000000000       -62.9839749827       87.8280852559       57.8454357993
atom        15.7323000000       15.2325000000       15.8672000000 H         0.0000000000         0.0000000000       -42.3933431792        9.6143184833      -94.4702589645
atom        15.2567000000       15.1863000000       14.8950000000 C         0.0000000000         0.0000000000      -153.2903705746      -72.0167278900       15.6259819998
atom        14.1140000000       15.3465000000       14.7649000000 N         0.0000000000         0.0000000000       258.6675887364      -25.4256458491       20.9988181048
energy      -702.7611549399
charge 0
end
begin
comment generated by PY
lattice        30.0000000000         0.0000000000         0.0000000000
lattice         0.0000000000        30.0000000000         0.0000000000
lattice         0.0000000000         0.0000000000        30.0000000000
atom        15.8153000000       14.7923000000       14.0661000000 H         0.0000000000         0.0000000000       -48.6776661946       19.8364216877       89.5476181990
atom        15.8285000000       15.5859000000       15.8247000000 H         0.0000000000         0.0000000000       -59.5365964992      -60.1079315897      -90.5086924820
atom        15.2449000000       15.1013000000       14.9302000000 C         0.0000000000         0.0000000000      -140.5656611106      107.9274514000      -47.5330860225
atom        14.1219000000       15.3667000000       14.7493000000 N         0.0000000000         0.0000000000       248.7802238044      -67.6559414980       48.4938603055
energy      -705.8848620682
charge 0
end
begin
comment generated by PY
lattice        30.0000000000         0.0000000000         0.0000000000
lattice         0.0000000000        30.0000000000         0.0000000000
lattice         0.0000000000         0.0000000000        30.0000000000
atom        15.8801000000       14.5006000000       14.1894000000 H         0.0000000000         0.0000000000       -63.6933823934       76.1150829059       68.4602595583
atom        15.7236000000       15.3044000000       15.8906000000 H         0.0000000000         0.0000000000       -41.8811862280       -6.6964324210     -102.4726937517
atom        15.2589000000       15.1652000000       14.8933000000 C         0.0000000000         0.0000000000      -158.7571055047      -32.8460149680       12.0917932358
atom        14.1127000000       15.3528000000       14.7674000000 N         0.0000000000         0.0000000000       264.3315741260      -36.5726124563       21.9205009575
energy      -706.5695074938
charge 0
end
begin
comment generated by PY
lattice        30.0000000000         0.0000000000         0.0000000000
lattice         0.0000000000        30.0000000000         0.0000000000
lattice         0.0000000000         0.0000000000        30.0000000000
atom        15.8678000000       14.6504000000       14.1043000000 H         0.0000000000         0.0000000000       -64.3841733176       46.1438936375       83.6853571743
atom        15.8437000000       15.4357000000       15.7777000000 H         0.0000000000         0.0000000000       -61.8166187619      -30.6303318477      -79.8756924835
atom        15.2446000000       15.1319000000       14.9246000000 C         0.0000000000         0.0000000000      -124.8904693080       37.1942168015      -45.4187116377
atom        14.1174000000       15.3613000000       14.7546000000 N         0.0000000000         0.0000000000       251.0906613875      -52.7078785913       41.6092469470
energy      -713.5459302053
charge 0
end
begin
comment generated by PY
lattice        30.0000000000         0.0000000000         0.0000000000
lattice         0.0000000000        30.0000000000         0.0000000000
lattice         0.0000000000         0.0000000000        30.0000000000
atom        15.8037000000       14.5742000000       14.2283000000 H         0.0000000000         0.0000000000       -38.7566514988       53.6066285106       52.0772250908
atom        15.7402000000       15.3545000000       15.9452000000 H         0.0000000000         0.0000000000       -44.4331974365      -16.3550957152     -112.7779194389
atom        15.2630000000       15.1551000000       14.8885000000 C         0.0000000000         0.0000000000      -184.5288087775        2.1987412307       35.6292536232
atom        14.1135000000       15.3526000000       14.7648000000 N         0.0000000000         0.0000000000       267.7190577128      -39.4503970866       25.0714407249
energy      -710.3303701194
charge 0
end
begin
comment generated by PY
lattice        30.0000000000         0.0000000000         0.0000000000
lattice         0.0000000000        30.0000000000         0.0000000000
lattice         0.0000000000         0.0000000000        30.0000000000
atom        15.8979000000       14.7864000000       14.0447000000 H         0.0000000000         0.0000000000       -68.5829817823       20.9954586405       93.6718391160
atom        15.8019000000       15.5516000000       15.7066000000 H         0.0000000000         0.0000000000       -50.7341228004      -50.5303716178      -61.0589998225
atom        15.2414000000       15.0994000000       14.9344000000 C         0.0000000000         0.0000000000      -128.5793160430      101.3070304637      -77.0415842000
atom        14.1209000000       15.3711000000       14.7555000000 N         0.0000000000         0.0000000000       247.8966206258      -71.7720174865       44.4290218459
energy      -711.2831235132
charge 0
end
begin
comment generated by PY
lattice        30.0000000000         0.0000000000         0.0000000000
lattice         0.0000000000        30.0000000000         0.0000000000
lattice         0.0000000000         0.0000000000        30.0000000000
atom        15.7627000000       14.3674000000       14.2553000000 H         0.0000000000         0.0000000000       -43.5451561694       97.3355159165       52.0062875966
atom        15.6933000000       15.1528000000       15.9158000000 H         0.0000000000         0.0000000000       -35.5418871978       22.4867082246     -105.8829089618
atom        15.2634000000       15.2036000000       14.8792000000 C         0.0000000000         0.0000000000      -165.8207790382     -108.1107851034       39.7549675665
atom        14.1195000000       15.3402000000       14.7729000000 N         0.0000000000         0.0000000000       244.9081224053      -11.7113990376       14.1216837987
energy      -700.8619818020
charge 0
end
begin
comment generated by PY
lattice        30.0000000000         0.0000000000         0.0000000000
lattice         0.0000000000        30.0000000000         0.0000000000
lattice         0.0000000000         0.0000000000        30.0000000000
atom        15.8731000000       14.7657000000       14.1059000000 H         0.0000000000         0.0000000000       -61.9116921018       23.2745862777       81.0665027314
atom        15.9061000000       15.5646000000       15.8169000000 H         0.0000000000         0.0000000000       -72.3755716894      -53.2724181966      -86.8098867546
atom        15.2439000000       15.1035000000       14.9202000000 C         0.0000000000         0.0000000000      -132.7294265614       99.7308207620      -40.2250591503
atom        14.1131000000       15.3682000000       14.7555000000 N         0.0000000000         0.0000000000       267.0160903526      -69.7329888431       45.9684431735
energy      -701.0002066574
charge 0
end
begin
comment generated by PY
lattice        30.0000000000         0.0000000000         0.0000000000
lattice         0.0000000000        30.0000000000         0.0000000000
lattice         0.0000000000         0.0000000000        30.0000000000
atom        15.8777000000       14.5249000000       14.0940000000 H         0.0000000000         0.0000000000       -62.0347793919       68.9985109501       84.9651536086
atom        15.7372000000       15.3770000000       15.8629000000 H         0.0000000000         0.0000000000       -41.7854171966      -21.0783468832      -99.2086320073
atom        15.2523000000       15.1530000000       14.9043000000 C         0.0000000000         0.0000000000      -147.7890419773       -5.7706348393      -11.6718659470
atom        14.1177000000       15.3563000000       14.7668000000 N         0.0000000000         0.0000000000       251.6096155052      -42.1495292276       25.9151643456
energy      -704.7300819254
charge 0
end
begin
comment generated by PY
lattice        30.0000000000         0.0000000000         0.0000000000
lattice         0.0000000000        30.0000000000         0.0000000000
lattice         0.0000000000         0.0000000000        30.0000000000
atom        15.8667000000       14.6348000000       14.0875000000 H         0.0000000000         0.0000000000       -61.9527929811       51.1475890048       89.1423183334
atom        15.8126000000       15.4538000000       15.8704000000 H         0.0000000000         0.0000000000       -57.1071022365      -36.4011049938     -101.9619742119
atom        15.2520000000       15.1313000000       14.9115000000 C         0.0000000000         0.0000000000      -147.1502954342       40.2476547286      -23.6570161434
atom        14.1133000000       15.3616000000       14.7605000000 N         0.0000000000         0.0000000000       266.2103906517      -54.9940387396       36.4767950824
energy      -702.7223208654
charge 0
end
begin
comment generated by PY
lattice        30.0000000000         0.0000000000         0.0000000000
lattice         0.0000000000        30.0000000000         0.0000000000
lattice         0.0000000000         0.0000000000        30.0000000000
atom        15.8511000000       14.6591000000       14.1646000000 H         0.0000000000         0.0000000000       -55.7753939537       40.4439185063       68.9211892401
atom        15.8246000000       15.4811000000       15.8256000000 H         0.0000000000         0.0000000000       -60.2197049210      -38.1211157761      -92.8716015588
atom        15.2491000000       15.1269000000       14.9078000000 C         0.0000000000         0.0000000000      -139.2325642820       52.6502869858      -10.6893209745
atom        14.1161000000       15.3617000000       14.7613000000 N         0.0000000000         0.0000000000       255.2280631567      -54.9729897161       34.6396332932
energy      -714.6201880346
charge 0
end
begin
comment generated by PY
lattice        30.0000000000         0.0000000000         0.0000000000
lattice         0.0000000000        30.0000000000         0.0000000000
lattice         0.0000000000         0.0000000000        30.0000000000
atom        15.8588000000       14.4856000000       14.2003000000 H         0.0000000000         0.0000000000       -62.1853197067       75.0137822380       65.0057006168
atom        15.7384000000       15.3251000000       15.7919000000 H         0.0000000000         0.0000000000       -35.0930181913       -4.5863459799      -72.2278688728
atom        15.2576000000       15.1618000000       14.8961000000 C         0.0000000000         0.0000000000      -161.1139010938      -32.4362289660      -14.4571314819
atom        14.1143000000       15.3553000000       14.7712000000 N         0.0000000000         0.0000000000       258.3921159313      -37.9911842315       21.6791997379
energy      -716.2853151082
charge 0
end
begin
comment generated by PY
lattice        30.0000000000         0.0000000000         0.0000000000
lattice         0.0000000000        30.0000000000         0.0000000000
lattice         0.0000000000         0.0000000000        30.0000000000
atom        15.8144000000       14.7082000000       14.0549000000 H         0.0000000000         0.0000000000       -52.8984093167       34.0246399287       94.2576208846
atom        15.8052000000       15.5256000000       15.7442000000 H         0.0000000000         0.0000000000       -50.1352188757      -46.6363826491      -72.8433220543
atom        15.2510000000       15.1118000000       14.9317000000 C         0.0000000000         0.0000000000      -154.9571010212       77.3957848941      -68.0441232387
atom        14.1184000000       15.3680000000       14.7545000000 N         0.0000000000         0.0000000000       257.9908292136      -64.7841191132       46.6302244084
energy      -713.2333938180
charge 0
end
begin
comment generated by PY
lattice        30.0000000000         0.0000000000         0.0000000000
lattice         0.0000000000        30.0000000000         0.0000000000
lattice         0.0000000000         0.0000000000        30.0000000000
atom        15.8284000000       14.5544000000       14.1779000000 H         0.0000000000         0.0000000000       -52.0977065036       61.9966591130       70.8768754481
atom        15.7363000000       15.4201000000       15.9101000000 H         0.0000000000         0.0000000000       -43.0495237644      -27.8851782883     -109.2377270305
atom        15.2542000000       15.1436000000       14.8896000000 C         0.0000000000         0.0000000000      -152.7829122008       10.0363672718       16.7351876221
atom        14.1196000000       15.3592000000       14.7700000000 N         0.0000000000         0.0000000000       247.9293424688      -44.1478711570       21.6256408998
energy      -710.3905025228
charge 0
end
begin
comment generated by PY
lattice        30.0000000000         0.0000000000         0.0000000000
lattice         0.0000000000        30.0000000000         0.0000000000
lattice         0.0000000000         0.0000000000        30.0000000000
atom        15.8609000000       14.6522000000       14.0547000000 H         0.0000000000         0.0000000000       -63.5783822456       45.1231818007       93.9394014040
atom        15.9387000000       15.5140000000       15.8366000000 H         0.0000000000         0.0000000000       -76.6511194662      -43.6686705293      -92.5798212983
atom        15.2382000000       15.1243000000       14.9244000000 C         0.0000000000         0.0000000000      -112.0616868148       54.3763560039      -47.0425338331
atom        14.1165000000       15.3621000000       14.7541000000 N         0.0000000000         0.0000000000       252.2913885266      -55.8307442147       45.6829537274
energy      -694.8389485362
charge 0
end
begin
comment generated by PY
lattice        30.0000000000         0.0000000000         0.0000000000
lattice         0.0000000000        30.0000000000         0.0000000000
lattice         0.0000000000         0.0000000000        30.0000000000
atom        15.8937000000       14.4777000000       14.2252000000 H         0.0000000000         0.0000000000       -67.3983111595       77.3527123278       61.8231549009
atom        15.7387000000       15.3361000000       15.8855000000 H         0.0000000000         0.0000000000       -45.3795524980      -10.2395075848     -103.1432654357
atom        15.2528000000       15.1609000000       14.8854000000 C         0.0000000000         0.0000000000      -138.5385076321      -29.7447572153       24.6767785232
atom        14.1160000000       15.3558000000       14.7719000000 N         0.0000000000         0.0000000000       251.3168712896      -37.3684705883       16.6436489511
energy      -707.5708582178