begin
comment generated by PY
lattice        30.0000000000         0.0000000000         0.0000000000
lattice         0.0000000000        30.0000000000         0.0000000000
lattice         0.0000000000         0.0000000000        30.0000000000
atom        14.1612000000       15.7731000000       15.0746000000 H         0.0000000000         0.0000000000        61.4554643557      -95.9047481733       49.7183075493
atom        14.2660000000       14.0353000000       14.9370000000 H         0.0000000000         0.0000000000        44.3326513962       94.6219096127       68.4675933206
atom        15.5994000000       15.5750000000       13.1008000000 H         0.0000000000         0.0000000000       106.3072522017      -30.0960594162       59.2699743485
atom        16.6517000000       14.1832000000       13.1866000000 H         0.0000000000         0.0000000000         0.5251185931      113.7058171383       60.5665445930
atom        14.7126000000       14.8951000000       15.4935000000 C         0.0000000000         0.0000000000        42.6972649560       -9.1024369868        2.8355521105
atom        16.4508000000       15.1583000000       13.6684000000 C         0.0000000000         0.0000000000       -73.3994088636      -16.6250385437      139.5903615260
atom        18.5435000000       16.6629000000       12.6314000000 C         0.0000000000         0.0000000000      -102.7747306036      -72.0377600192      147.5136170794
atom        12.4219000000       13.2913000000       16.2712000000 O         0.0000000000         0.0000000000       111.5416854046      229.9127283043      201.6977262192
atom        11.9878000000       14.7589000000       17.9408000000 O         0.0000000000         0.0000000000       236.0193148035     -129.8444239315     -213.3005205462
atom        16.1472000000       15.0090000000       15.0424000000 N         0.0000000000         0.0000000000      -155.0274059045       -0.3253161183     -159.5381110320
atom        14.2978000000       14.7639000000       17.0031000000 N         0.0000000000         0.0000000000       -60.9245743881      -19.0506156321     -188.4387587091
atom        12.8154000000       14.2274000000       17.0870000000 N         0.0000000000         0.0000000000      -191.3538124157      -47.6566975628      -30.0955521828
atom        17.9381000000       16.2359000000       13.4450000000 N         0.0000000000         0.0000000000       -19.3993964749      -17.5977114321     -138.2867212159
energy     -2479.2374060847
charge 0
end
begin
comment generated by PY
lattice        30.0000000000         0.0000000000         0.0000000000
lattice         0.0000000000        30.0000000000         0.0000000000
lattice         0.0000000000         0.0000000000        30.0000000000
atom        13.7521000000       14.6726000000       14.3572000000 H         0.0000000000         0.0000000000        88.0989671652      -33.0656104954       86.5333956565
atom        14.5389000000       13.2323000000       15.1443000000 H         0.0000000000         0.0000000000         4.0553289384      134.1412353791       -6.4598068507
atom        15.9172000000       16.7835000000       14.8954000000 H         0.0000000000         0.0000000000        21.1259705256      -88.0293945484      -95.0321111789
atom        15.3237000000       16.4237000000       13.2588000000 H         0.0000000000         0.0000000000        90.6782733139      -42.4633605835       73.5209955390
atom        14.5757000000       14.3526000000       15.0621000000 C         0.0000000000         0.0000000000        65.9171429888       18.4062458921      -12.9037207718
atom        16.0083000000       16.0523000000       14.0426000000 C         0.0000000000         0.0000000000       -39.3478770491     -105.1593052819       42.4359105071
atom        18.7789000000       15.9455000000       13.5202000000 C         0.0000000000         0.0000000000      -173.7301651732       83.2794538246      -17.2084920384
atom        13.0570000000       13.0452000000       17.3218000000 O         0.0000000000         0.0000000000        -3.8430610519      332.3928127418      -38.8353165568
atom        11.9264000000       15.0662000000       17.2164000000 O         0.0000000000         0.0000000000       297.3763916575     -178.8760291319      -16.6882711434
atom        15.7816000000       14.7122000000       14.2886000000 N         0.0000000000         0.0000000000      -147.1390775625      204.0570849728       73.1940330785
atom        14.3482000000       14.9252000000       16.5353000000 N         0.0000000000         0.0000000000       -91.2155845552     -101.4900391745     -117.5019489799
atom        13.0164000000       14.3497000000       17.1298000000 N         0.0000000000         0.0000000000      -152.6855758326     -108.8806824779      -32.1752987266
atom        17.7736000000       16.3826000000       13.4406000000 N         0.0000000000         0.0000000000        40.7099605138     -114.3134341773       61.1206684051
energy     -2470.4240926516
charge 0
end
begin
comment generated by PY
lattice        30.0000000000         0.0000000000         0.0000000000
lattice         0.0000000000        30.0000000000         0.0000000000
lattice         0.0000000000         0.0000000000        30.0000000000
atom        13.7939000000       14.4846000000       14.5837000000 H         0.0000000000         0.0000000000        98.2474008859       44.0605169341       89.2067202524
atom        15.0742000000       13.7406000000       15.4809000000 H         0.0000000000         0.0000000000       -42.3070010299      116.3434651532       -3.5778263445
atom        17.2892000000       14.2518000000       14.9685000000 H         0.0000000000         0.0000000000       -22.5446077929      115.2171661573      -34.7278295618
atom        17.3642000000       15.6891000000       15.8774000000 H         0.0000000000         0.0000000000       -44.0570935138      -22.1172535932     -123.4999780948
atom        14.6714000000       14.7635000000       15.2999000000 C         0.0000000000         0.0000000000        12.1518544466       -4.0635246369      -60.2491459402
atom        17.0147000000       15.3188000000       14.8577000000 C         0.0000000000         0.0000000000      -114.2148799501       19.1466709230      -43.5626429930
atom        17.9742000000       16.0062000000       12.4725000000 C         0.0000000000         0.0000000000        -2.8856377231       43.0364054010      196.0178876360
atom        13.2061000000       13.4173000000       17.8743000000 O         0.0000000000         0.0000000000       -87.8920402816      211.8556331240     -248.3512246588
atom        11.7392000000       14.2890000000       16.3248000000 O         0.0000000000         0.0000000000       306.5980324731      -14.7521469188      157.2840534914
atom        15.6650000000       15.4696000000       14.4208000000 N         0.0000000000         0.0000000000        83.3593188800     -115.4626265650      232.1894772546
atom        13.9786000000       15.3560000000       16.6541000000 N         0.0000000000         0.0000000000        -6.3917304469     -166.0396670955     -140.8575761966
atom        12.8552000000       14.2321000000       16.9123000000 N         0.0000000000         0.0000000000      -107.4839101823      -92.4105033985       56.5711241040
atom        17.9245000000       16.2102000000       13.5578000000 N         0.0000000000         0.0000000000       -72.5797557650     -134.8130374242      -76.4437620092
energy     -2456.7486595871
charge 0
end
begin
comment generated by PY
lattice        30.0000000000         0.0000000000         0.0000000000
lattice         0.0000000000        30.0000000000         0.0000000000
lattice         0.0000000000         0.0000000000        30.0000000000
atom        13.2680000000       15.9232000000       15.2065000000 H         0.0000000000         0.0000000000       108.8464583196      -75.2313618843        5.7519412988
atom        13.8470000000       14.3890000000       14.6636000000 H         0.0000000000         0.0000000000        39.7579298671       93.4313088038       60.1854023077
atom        16.4841000000       14.3011000000       14.1137000000 H         0.0000000000         0.0000000000         6.2458075364      119.7272281422        5.1898073315
atom        16.9062000000       15.3059000000       15.3755000000 H         0.0000000000         0.0000000000       -28.8528497174       23.8847631883     -117.5882173121
atom        14.1893000000       15.2826000000       15.2149000000 C         0.0000000000         0.0000000000        44.6789382570       18.4427562608       11.8831299357
atom        16.5290000000       15.3638000000       14.3484000000 C         0.0000000000         0.0000000000      -109.9468608559       42.6176185585       46.2176031541
atom        18.8116000000       15.7417000000       13.1097000000 C         0.0000000000         0.0000000000      -182.6711996139       89.3298389419       29.7353946989
atom        12.7373000000       14.0152000000       18.3212000000 O         0.0000000000         0.0000000000       125.7547125903      -15.4478971134     -310.0138338571
atom        12.3074000000       13.7065000000       16.1256000000 O         0.0000000000         0.0000000000       213.6091851559       50.7897035401      229.2809067061
atom        15.2180000000       16.0037000000       14.3402000000 N         0.0000000000         0.0000000000        68.4539927543     -235.2167732165      124.3881162854
atom        14.4744000000       14.7081000000       16.6385000000 N         0.0000000000         0.0000000000      -134.9765937201        5.4433805082     -154.9491977666
atom        13.1312000000       13.9647000000       17.0621000000 N         0.0000000000         0.0000000000      -219.8874067339       49.3790477963        5.9776336042
atom        17.8136000000       16.1914000000       13.2950000000 N         0.0000000000         0.0000000000        68.9893230999     -167.1500315259       63.9418105530
energy     -2466.5602740573
charge 0
end
begin
comment generated by PY
lattice        30.0000000000         0.0000000000         0.0000000000
lattice         0.0000000000        30.0000000000         0.0000000000
lattice         0.0000000000         0.0000000000        30.0000000000
atom        13.4697000000       15.9414000000       15.8375000000 H         0.0000000000         0.0000000000       100.2636248008      -78.6497097757      -68.4636128989
atom        13.7095000000       15.3159000000       14.2550000000 H         0.0000000000         0.0000000000        51.0548294666      -19.9824712173       89.2171892579
atom        15.6358000000       16.5977000000       13.0086000000 H         0.0000000000         0.0000000000        72.3536653190      -73.4878549069       83.1187573246
atom        15.7847000000       14.9274000000       13.3863000000 H         0.0000000000         0.0000000000        59.9148338819       96.7375679558       31.8306028618
atom        14.1931000000       15.3070000000       15.1880000000 C         0.0000000000         0.0000000000        21.0015408678       16.9985687047       10.9030263737
atom        16.1499000000       15.8830000000       13.7262000000 C         0.0000000000         0.0000000000      -102.1544061943        9.0687185429       72.6953804984
atom        18.9219000000       15.7475000000       13.6920000000 C         0.0000000000         0.0000000000      -194.3375278755       58.3402470517      -45.4766026653
atom        13.0258000000       15.0254000000       17.6492000000 O         0.0000000000         0.0000000000        52.9251787988     -278.3722265563     -157.1216687912
atom        12.2519000000       13.0038000000       17.0809000000 O         0.0000000000         0.0000000000       255.7294115901      211.3150306681      -34.0594996291
atom        15.5006000000       16.0406000000       15.0302000000 N         0.0000000000         0.0000000000       -44.6766966320     -143.3876944653     -167.5527871466
atom        14.1868000000       13.8557000000       15.7771000000 N         0.0000000000         0.0000000000       -76.1709016794      190.4812215279       38.2093542548
atom        13.1675000000       13.9050000000       16.9889000000 N         0.0000000000         0.0000000000      -205.3974757008       88.1902290068       62.1336856545
atom        17.8793000000       16.0392000000       13.4782000000 N         0.0000000000         0.0000000000         9.4932002966      -77.2524834757       84.5655179658
energy     -2481.3429932372
charge 0
end
begin
comment generated by PY
lattice        30.0000000000         0.0000000000         0.0000000000
lattice         0.0000000000        30.0000000000         0.0000000000
lattice         0.0000000000         0.0000000000        30.0000000000
atom        14.1065000000       16.5687000000       15.2312000000 H         0.0000000000         0.0000000000       -22.5872350688     -113.5647055017      -43.3226700133
atom        13.4799000000       15.8319000000       13.7732000000 H         0.0000000000         0.0000000000        41.2828953783      -31.0571313354      108.2739083600
atom        15.9265000000       15.8397000000       12.7069000000 H         0.0000000000         0.0000000000        54.6614763475      -48.4011119898      106.6622793369
atom        16.8023000000       14.2716000000       13.2500000000 H         0.0000000000         0.0000000000       -60.8149571520      122.3514504266       54.5500520021
atom        13.9344000000       15.5888000000       14.7375000000 C         0.0000000000         0.0000000000        64.4160680883      -75.6034248012      -15.0118701414
atom        16.2847000000       15.2731000000       13.5997000000 C         0.0000000000         0.0000000000      -127.1802031050      -63.0936160426       71.6636352076
atom        18.9036000000       16.1891000000       13.9831000000 C         0.0000000000         0.0000000000      -193.0191907571      -28.8256496898       62.0911405673
atom        12.9800000000       14.9221000000       17.9004000000 O         0.0000000000         0.0000000000       138.9296172369     -143.4985743669     -254.8320990384
atom        13.4609000000       12.9282000000       17.1362000000 O         0.0000000000         0.0000000000        22.4424071745      314.2246351710      -76.9117401214
atom        15.2483000000       15.0097000000       14.5698000000 N         0.0000000000         0.0000000000         5.3613256759      118.6312802036     -124.0018645925
atom        12.8501000000       14.6979000000       15.5044000000 N         0.0000000000         0.0000000000       210.3325670387       91.9558169064       24.4602994509
atom        13.4474000000       14.2405000000       16.9150000000 N         0.0000000000         0.0000000000      -223.1231584529     -127.4707902218      197.6583140101
atom        17.8585000000       16.0190000000       14.2893000000 N         0.0000000000         0.0000000000        89.2985145351      -15.6478787584     -111.2804519675
energy     -2448.2844996983
charge 0
end
begin
comment generated by PY
lattice        30.0000000000         0.0000000000         0.0000000000
lattice         0.0000000000        30.0000000000         0.0000000000
lattice         0.0000000000         0.0000000000        30.0000000000
atom        14.5735000000       16.3059000000       14.8993000000 H         0.0000000000         0.0000000000       -48.6344209708      -78.8847489291      -24.8653565613
atom        13.4329000000       16.0752000000       13.6926000000 H         0.0000000000         0.0000000000        53.3256089782      -76.3061299621       96.4945964971
atom        15.7825000000       15.6590000000       12.3730000000 H         0.0000000000         0.0000000000        34.1306750244      -43.7208659373      103.3420665304
atom        16.6210000000       14.2819000000       12.7622000000 H         0.0000000000         0.0000000000       -33.4184264375       56.4074722181       60.0148698743
atom        13.9860000000       15.5351000000       14.5157000000 C         0.0000000000         0.0000000000        18.2989719011      -72.0953118552       22.8282654665
atom        16.0618000000       15.0083000000       13.1891000000 C         0.0000000000         0.0000000000      -200.9171376560      -62.4912367835       87.7686254410
atom        17.7723000000       15.6824000000       15.4547000000 C         0.0000000000         0.0000000000      -106.7592451332       22.5841739437     -100.8242320874
atom        13.3717000000       15.0271000000       17.9542000000 O         0.0000000000         0.0000000000        75.4767774478     -165.5419113747     -291.2511578463
atom        14.6834000000       13.5677000000       16.6904000000 O         0.0000000000         0.0000000000      -253.0229846596      209.2503885944       43.9424309368
atom        14.9916000000       14.5205000000       13.9380000000 N         0.0000000000         0.0000000000        72.3024538914      220.2646984123      -73.5805639057
atom        12.9902000000       15.0512000000       15.5805000000 N         0.0000000000         0.0000000000       185.1004755453       18.3323321879      -42.1027859004
atom        13.6859000000       14.4427000000       16.8715000000 N         0.0000000000         0.0000000000       132.0975512344       26.5864382746      100.0465472700
atom        17.0027000000       15.8234000000       14.7048000000 N         0.0000000000         0.0000000000        72.0206777740      -54.3842357286       18.1860942851
energy     -2492.4521101721
charge 0
end
begin
comment generated by PY
lattice        30.0000000000         0.0000000000         0.0000000000
lattice         0.0000000000        30.0000000000         0.0000000000
lattice         0.0000000000         0.0000000000        30.0000000000
atom        14.4879000000       16.1638000000       15.0054000000 H         0.0000000000         0.0000000000       -50.6778699784     -107.4098662270      -64.3485760820
atom        13.3152000000       15.9965000000       13.8031000000 H         0.0000000000         0.0000000000        55.7819104873      -93.8965633404       68.2777154065
atom        15.4712000000       16.3120000000       12.5275000000 H         0.0000000000         0.0000000000        -3.1804886078      -91.0747120142        6.2714941465
atom        16.1527000000       14.7573000000       11.8872000000 H         0.0000000000         0.0000000000       -69.4355815106       52.9395818087       82.8562972954
atom        13.9399000000       15.3551000000       14.4362000000 C         0.0000000000         0.0000000000        19.8120404532       -1.8123725329       59.3830555362
atom        15.5146000000       15.2823000000       12.5913000000 C         0.0000000000         0.0000000000       -88.7391220162     -145.5010246435      168.6010745851
atom        17.4178000000       14.8850000000       15.4215000000 C         0.0000000000         0.0000000000        13.4094628547      205.0581018826       15.3215029814
atom        13.1843000000       14.9808000000       17.9523000000 O         0.0000000000         0.0000000000       167.5797884744      -51.7276654370     -293.9840037960
atom        14.9901000000       14.0529000000       17.0020000000 O         0.0000000000         0.0000000000      -271.1982061831      171.1946197015      -47.4448929882
atom        14.9292000000       14.5807000000       13.5034000000 N         0.0000000000         0.0000000000        27.8542130861      272.5999794549     -132.7947018821
atom        13.1340000000       14.5948000000       15.4916000000 N         0.0000000000         0.0000000000       180.8716458112      127.9147459698      -30.0900524226
atom        13.8572000000       14.7243000000       16.8818000000 N         0.0000000000         0.0000000000        35.4135782703     -134.0659619459      185.3073147217
atom        17.4971000000       15.9751000000       15.5097000000 N         0.0000000000         0.0000000000       -17.4919742017     -204.2183396160      -17.3562505626
energy     -2493.1865363817
charge 0
end
begin
comment generated by PY
lattice        30.0000000000         0.0000000000         0.0000000000
lattice         0.0000000000        30.0000000000         0.0000000000
lattice         0.0000000000         0.0000000000        30.0000000000
atom        13.5623000000       16.1778000000       14.0286000000 H         0.0000000000         0.0000000000       -45.9191067022     -126.2938920932       22.8972612881
atom        12.2297000000       15.0938000000       13.5109000000 H         0.0000000000         0.0000000000       100.2070026168       -3.0430433110       80.1141350043
atom        14.6506000000       15.6330000000       11.9699000000 H         0.0000000000         0.0000000000        13.1284436037     -102.1095763294       50.7078500364
atom        15.6617000000       14.1622000000       12.0415000000 H         0.0000000000         0.0000000000       -84.9207086838       31.7766420132       35.2121560760
atom        13.1266000000       15.1096000000       14.1493000000 C         0.0000000000         0.0000000000         7.4834322937      -10.4334359562       34.7569787690
atom        14.8307000000       14.6565000000       12.4081000000 C         0.0000000000         0.0000000000      -103.6148188722      -39.1267047230      210.2383723028
atom        18.4206000000       16.4139000000       16.9200000000 C         0.0000000000         0.0000000000        53.9098179969     -221.7328139281      -76.8007100853
atom        13.7547000000       14.8009000000       17.7646000000 O         0.0000000000         0.0000000000         4.6017934895      -40.5773436296     -335.8147483822
atom        15.0564000000       14.4742000000       15.9493000000 O         0.0000000000         0.0000000000      -293.1675808802       34.1673267349      107.0682541666
atom        14.2178000000       14.2224000000       13.4685000000 N         0.0000000000         0.0000000000        37.0181049057      219.9920547616     -184.1252372302
atom        12.6213000000       14.9171000000       15.5375000000 N         0.0000000000         0.0000000000       203.2095199452       -8.4807033163     -125.1451262482
atom        13.8456000000       14.6578000000       16.4676000000 N         0.0000000000         0.0000000000       162.2154113641       43.8723362709      104.5095027578
atom        18.6665000000       15.3919000000       16.5675000000 N         0.0000000000         0.0000000000       -54.1525071982      221.9898915061       76.3810115449
energy     -2487.2000403678
charge 0
end
begin
comment generated by PY
lattice        30.0000000000         0.0000000000         0.0000000000
lattice         0.0000000000        30.0000000000         0.0000000000
lattice         0.0000000000         0.0000000000        30.0000000000
atom        13.0647000000       16.0266000000       13.5835000000 H         0.0000000000         0.0000000000       -27.1945450037     -130.7780810148       45.8340496060
atom        11.6611000000       14.8903000000       13.4622000000 H         0.0000000000         0.0000000000       121.3166208074        3.9340999119       68.7606607797
atom        12.4025000000       14.2116000000       11.3587000000 H         0.0000000000         0.0000000000       104.3821946604      -36.9711296113       50.9633400195
atom        13.8562000000       12.9881000000       11.2361000000 H         0.0000000000         0.0000000000       -56.6815030912       94.4639959651       75.8155902316
atom        12.7156000000       14.9639000000       13.9049000000 C         0.0000000000         0.0000000000        10.3783875764      -49.3800889556       28.4321884505
atom        13.3118000000       13.7807000000       11.8298000000 C         0.0000000000         0.0000000000        -4.7909313589      -19.7943585264      235.6738168607
atom        19.8216000000       15.6033000000       18.1721000000 C         0.0000000000         0.0000000000       -16.9180169701      153.4876261910      -14.6080961925
atom        14.0253000000       14.4298000000       17.3355000000 O         0.0000000000         0.0000000000       -21.7074347789      124.3202094289     -312.0730827043
atom        15.0526000000       15.4594000000       15.5890000000 O         0.0000000000         0.0000000000      -271.3828160602     -128.6925083762      129.9179288090
atom        13.5304000000       13.8961000000       13.1236000000 N         0.0000000000         0.0000000000      -132.4081809805      104.7370903609     -252.5900870916
atom        12.6414000000       14.7794000000       15.3816000000 N         0.0000000000         0.0000000000       124.2137844826       46.8349709999     -145.2446573809
atom        13.9938000000       14.9233000000       16.1371000000 N         0.0000000000         0.0000000000       153.7334597073       -8.6928484433       74.5052912543
atom        19.7003000000       16.6712000000       18.0689000000 N         0.0000000000         0.0000000000        17.0598110096     -153.4685748696       14.6118034789
energy     -2474.1308182802
charge 0
end
begin
comment generated by PY
lattice        30.0000000000         0.0000000000         0.0000000000
lattice         0.0000000000        30.0000000000         0.0000000000
lattice         0.0000000000         0.0000000000        30.0000000000
atom        12.6281000000       15.6358000000       13.3641000000 H         0.0000000000         0.0000000000       -30.8376282232     -107.8125018187       60.7925934126
atom        11.1021000000       14.9339000000       13.5742000000 H         0.0000000000         0.0000000000       122.3346749422      -27.9840632827       63.8246447649
atom        12.7621000000       14.3673000000       11.4146000000 H         0.0000000000         0.0000000000       -19.8560108742     -105.8067976237       59.4746469783
atom        13.0919000000       12.5362000000       11.3426000000 H         0.0000000000         0.0000000000       -60.0732158090       88.4228364704       81.1978916811
atom        12.1786000000       14.7688000000       13.8873000000 C         0.0000000000         0.0000000000        23.6144833834      -26.7937366785       35.1272862118
atom        12.6770000000       13.3950000000       11.9468000000 C         0.0000000000         0.0000000000        52.5620745132       28.0859464841      219.5319572958
atom        20.5687000000       17.0173000000       19.1924000000 C         0.0000000000         0.0000000000        36.3853861863     -119.7543343880       21.4516075271
atom        14.6758000000       14.2470000000       16.4188000000 O         0.0000000000         0.0000000000      -186.5691148460      189.0310118226     -220.1404441208
atom        14.7302000000       15.9233000000       14.9235000000 O         0.0000000000         0.0000000000      -189.1675395455     -227.4684616389      155.2579381270
atom        12.5549000000       13.3696000000       13.2686000000 N         0.0000000000         0.0000000000       -11.5346360877      169.2330123050     -280.1152607323
atom        12.4780000000       14.8989000000       15.3564000000 N         0.0000000000         0.0000000000        86.6230081066       -6.6932516271     -196.6040820015
atom        14.0482000000       15.0052000000       15.5575000000 N         0.0000000000         0.0000000000       212.8465601320       27.7769520106       21.6429215710
atom        20.8743000000       16.0062000000       19.3725000000 N         0.0000000000         0.0000000000       -36.3263718780      119.7638210254      -21.4423237756
energy     -2464.8198577313
charge 0
end
begin
comment generated by PY
lattice        30.0000000000         0.0000000000         0.0000000000
lattice         0.0000000000        30.0000000000         0.0000000000
lattice         0.0000000000         0.0000000000        30.0000000000
atom        11.9401000000       15.5253000000       13.5072000000 H         0.0000000000         0.0000000000         5.2736515483     -120.2408785133       51.3534889664
atom        10.7517000000       14.4972000000       14.1912000000 H         0.0000000000         0.0000000000       132.5196880465       -7.1921986709       -3.7784574985
atom        10.4225000000       13.0915000000       12.1893000000 H         0.0000000000         0.0000000000       107.9566608435      -10.4096428469      -15.1894957908
atom        11.7163000000       12.0937000000       11.4693000000 H         0.0000000000         0.0000000000        -6.3193630438       80.0904103063       60.0317537034
atom        11.8541000000       14.5348000000       14.0246000000 C         0.0000000000         0.0000000000        29.4699874067       32.7172006857       19.2917308538
atom        11.4724000000       12.8889000000       12.0917000000 C         0.0000000000         0.0000000000       111.3135549494       84.5436403610      222.2661098593
atom        21.9247000000       16.2411000000       20.6981000000 C         0.0000000000         0.0000000000       -74.5710809685      199.3484467747      -67.2987189638
atom        15.0178000000       14.3960000000       15.6484000000 O         0.0000000000         0.0000000000      -256.6972151056      154.0953410445     -165.2344815274
atom        14.3287000000       16.0191000000       14.1730000000 O         0.0000000000         0.0000000000       -79.9885590302     -256.3068118315      207.6296260069
atom        12.3243000000       13.3923000000       12.9920000000 N         0.0000000000         0.0000000000      -247.8504461422       -4.5397531693     -124.8826880200
atom        12.5784000000       14.7989000000       15.3129000000 N         0.0000000000         0.0000000000        39.8708576592      -31.9540694844     -230.2827378342
atom        14.0522000000       15.0463000000       14.9699000000 N         0.0000000000         0.0000000000       164.4390642170       79.1956120717      -21.2055847075