begin
comment generated by PY
lattice        30.0000000000         0.0000000000         0.0000000000
lattice         0.0000000000        30.0000000000         0.0000000000
lattice         0.0000000000         0.0000000000        30.0000000000
atom        14.9477100000       12.7718400000       15.3003400000 H         0.0000000000         0.0000000000       -27.0479114904       87.8627629448      -91.1575121210
atom        13.6429000000       13.7258900000       14.3002200000 H         0.0000000000         0.0000000000       115.7315544320       14.1500323090       56.3549024058
atom        14.6794000000       13.6468200000       14.6649800000 C         0.0000000000         0.0000000000       169.0996274865       68.5573601636      -61.7506007054
atom        14.1080300000       15.9976300000       14.5772500000 O         0.0000000000         0.0000000000       298.1690962140      -52.9482666830      -19.9606200634
atom        16.2557700000       16.5219100000       14.7411900000 O         0.0000000000         0.0000000000      -233.7341995776     -208.1483295833      -67.3724432205
atom        15.7072600000       14.3545100000       14.3269400000 N         0.0000000000         0.0000000000      -262.8608999592      -49.6716180434      140.9647786858
atom        15.3316100000       15.7416100000       14.5007500000 N         0.0000000000         0.0000000000       -59.3734321238      140.2213729266       42.9042457288
energy     -1378.0463373140
charge 0
end
begin
comment generated by PY
lattice        30.0000000000         0.0000000000         0.0000000000
lattice         0.0000000000        30.0000000000         0.0000000000
lattice         0.0000000000         0.0000000000        30.0000000000
atom        14.8234000000       12.4758400000       14.5168500000 H         0.0000000000         0.0000000000        -7.1755848080      127.5792214237       17.0061932052
atom        13.7636100000       14.0703100000       14.9298100000 H         0.0000000000         0.0000000000       106.6746757291      -56.5737519137      -42.1199126570
atom        14.7093400000       13.5663700000       14.6275900000 C         0.0000000000         0.0000000000       165.3576989247      148.2880032438      -23.8729899016
atom        14.0978700000       16.0569500000       14.5575900000 O         0.0000000000         0.0000000000       295.3999544763      -64.2776294713      -25.7791798884
atom        16.2512100000       16.5138500000       14.7090500000 O         0.0000000000         0.0000000000      -239.2389508150     -178.2039230317      -65.8092372157
atom        15.7312800000       14.3179900000       14.4299300000 N         0.0000000000         0.0000000000      -289.5591827126      -96.1587604528       35.0372663916
atom        15.2989700000       15.7850900000       14.5000400000 N         0.0000000000         0.0000000000       -31.4921063139      119.3487382861      105.5136387326
energy     -1402.7435076061
charge 0
end
begin
comment generated by PY
lattice        30.0000000000         0.0000000000         0.0000000000
lattice         0.0000000000        30.0000000000         0.0000000000
lattice         0.0000000000         0.0000000000        30.0000000000
atom        14.8849200000       12.4788400000       14.2015000000 H         0.0000000000         0.0000000000       -13.8725338839      112.0978845622       53.4448877686
atom        13.7720700000       13.7061400000       15.0967400000 H         0.0000000000         0.0000000000       106.8214617651      -12.0443849614      -55.9112045647
atom        14.7249700000       13.4837100000       14.6195700000 C         0.0000000000         0.0000000000       171.5308277998      117.4645110643      -50.1065858538
atom        14.1105900000       16.1370800000       14.4865500000 O         0.0000000000         0.0000000000       282.0472347143      -94.5815502233       72.9145573879
atom        16.2532700000       16.5455100000       14.6265100000 O         0.0000000000         0.0000000000      -241.3099866825     -188.9819907838       39.4583335305
atom        15.7139000000       14.2662400000       14.4158600000 N         0.0000000000         0.0000000000      -292.1577490986     -109.0113144905       73.4909733764
atom        15.2810500000       15.8058000000       14.7070900000 N         0.0000000000         0.0000000000       -13.0980500009      175.0401569664     -133.3005164696
energy     -1388.1904077382
charge 0
end
begin
comment generated by PY
lattice        30.0000000000         0.0000000000         0.0000000000
lattice         0.0000000000        30.0000000000         0.0000000000
lattice         0.0000000000         0.0000000000        30.0000000000
atom        15.1108300000       12.2767200000       14.4938700000 H         0.0000000000         0.0000000000       -32.7025327517      121.4741180169        2.5399560502
atom        13.6865300000       13.5056500000       14.8278900000 H         0.0000000000         0.0000000000       121.7833335528      -18.9963128409      -17.4818918658
atom        14.7682800000       13.3183600000       14.5985400000 C         0.0000000000         0.0000000000       103.2256192295      185.1792874117      -24.7871760753
atom        14.1305600000       16.1844500000       14.4960800000 O         0.0000000000         0.0000000000       279.3085860544      -66.9664454701       72.0188498599
atom        16.2895200000       16.5877900000       14.6200000000 O         0.0000000000         0.0000000000      -255.8860274275     -193.6238007129       44.6352999237
atom        15.5912400000       14.2553700000       14.4180100000 N         0.0000000000         0.0000000000      -168.3776995389     -182.6028368781       68.6441857533
atom        15.2922800000       15.8848300000       14.7178500000 N         0.0000000000         0.0000000000       -47.2723654976      155.5699513286     -145.5874184183
energy     -1378.0703941417
charge 0
end
begin
comment generated by PY
lattice        30.0000000000         0.0000000000         0.0000000000
lattice         0.0000000000        30.0000000000         0.0000000000
lattice         0.0000000000         0.0000000000        30.0000000000
atom        15.2317200000       12.3577500000       14.4530300000 H         0.0000000000         0.0000000000       -59.1659611275      108.6009166122       23.7196541282
atom        13.6855500000       13.4154800000       14.8708300000 H         0.0000000000         0.0000000000       116.3948730822        3.1320124055      -35.5172420118
atom        14.7476600000       13.3446900000       14.6052800000 C         0.0000000000         0.0000000000       184.1815992569      131.3792897227      -20.8142499346
atom        14.0975700000       16.2465200000       14.5764100000 O         0.0000000000         0.0000000000       290.5639523716      -91.9276917829      -36.4486616699
atom        16.2787400000       16.5425600000       14.6958500000 O         0.0000000000         0.0000000000      -260.0807983053     -167.4544390856      -69.6946728985
atom        15.6750200000       14.2050800000       14.4679400000 N         0.0000000000         0.0000000000      -247.2349708669     -143.8235061120       16.0639850761
atom        15.2676500000       15.8939500000       14.4835200000 N         0.0000000000         0.0000000000       -24.6267857319      160.0956949004      122.6958224806
energy     -1376.6991801635
charge 0
end
begin
comment generated by PY
lattice        30.0000000000         0.0000000000         0.0000000000
lattice         0.0000000000        30.0000000000         0.0000000000
lattice         0.0000000000         0.0000000000        30.0000000000
atom        14.8218800000       12.3815700000       14.7898200000 H         0.0000000000         0.0000000000         5.8901520353      122.0154104120      -22.3092690245
atom        13.7840500000       13.9511400000       14.5758900000 H         0.0000000000         0.0000000000       108.0811398902      -52.3674409416       11.1771450694
atom        14.7697300000       13.4603500000       14.6226100000 C         0.0000000000         0.0000000000       142.9827971225      156.6966054268      -44.9747124024
atom        14.0739900000       16.2521300000       14.5862800000 O         0.0000000000         0.0000000000       282.5535445851     -136.0347766671      -33.9096976091
atom        16.2445800000       16.4677200000       14.6995800000 O         0.0000000000         0.0000000000      -257.5909211338     -161.2816004120      -59.9702745135
atom        15.7838000000       14.2206400000       14.4217900000 N         0.0000000000         0.0000000000      -300.6201189184     -127.6697200905       57.7665333106
atom        15.2281600000       15.8183200000       14.4962800000 N         0.0000000000         0.0000000000        18.6484610706      198.6155334605       92.2129749757
energy     -1379.9377734835
charge 0
end
begin
comment generated by PY
lattice        30.0000000000         0.0000000000         0.0000000000
lattice         0.0000000000        30.0000000000         0.0000000000
lattice         0.0000000000         0.0000000000        30.0000000000
atom        14.8758700000       12.5225600000       14.7900400000 H         0.0000000000         0.0000000000       -23.2487282462      123.5531033692      -32.0845929556
atom        13.6947400000       14.0610100000       14.7373900000 H         0.0000000000         0.0000000000       120.6039036277      -41.8497060682      -11.7529063338
atom        14.7011300000       13.6101300000       14.6127900000 C         0.0000000000         0.0000000000       185.4485246999       81.5301863411      -15.1059752653
atom        14.0862800000       16.0894300000       14.5328400000 O         0.0000000000         0.0000000000       298.2501642446      -67.7253949701       33.7824507329
atom        16.2676200000       16.4776200000       14.6701700000 O         0.0000000000         0.0000000000      -256.6228926465     -150.9409685274        1.5329668429
atom        15.7593100000       14.2643400000       14.3859100000 N         0.0000000000         0.0000000000      -321.3724321929      -70.5925071296       90.1866044894
atom        15.2736500000       15.8028200000       14.6237100000 N         0.0000000000         0.0000000000        -3.0672031334      125.9915106143      -66.5535356139
energy     -1402.6498567652
charge 0
end
begin
comment generated by PY
lattice        30.0000000000         0.0000000000         0.0000000000
lattice         0.0000000000        30.0000000000         0.0000000000
lattice         0.0000000000         0.0000000000        30.0000000000
atom        14.6873400000       12.5483300000       14.2447900000 H         0.0000000000         0.0000000000        12.5137537904      113.3506662445       52.1076173097
atom        13.7149100000       13.9149000000       15.0748300000 H         0.0000000000         0.0000000000       107.5243447238      -31.6294606570      -51.3320870966
atom        14.6549100000       13.5644900000       14.6359000000 C         0.0000000000         0.0000000000       137.3450639589      156.1377024222      -44.5964515679
atom        14.1364600000       15.9988000000       14.5301600000 O         0.0000000000         0.0000000000       295.5320711718      -45.8608254796       -6.0371802742
atom        16.2786100000       16.5797500000       14.6981400000 O         0.0000000000         0.0000000000      -221.5270852477     -231.9610251869      -47.7092738418
atom        15.6412900000       14.3589900000       14.4327000000 N         0.0000000000         0.0000000000      -237.9169250094      -95.1096893716       31.8504893488
atom        15.3734400000       15.7427700000       14.5430200000 N         0.0000000000         0.0000000000       -93.4179858813      135.0824021559       65.7213415049
energy     -1397.0237704899
charge 0
end
begin
comment generated by PY
lattice        30.0000000000         0.0000000000         0.0000000000
lattice         0.0000000000        30.0000000000         0.0000000000
lattice         0.0000000000         0.0000000000        30.0000000000
atom        14.9178400000       12.5454800000       14.2303200000 H         0.0000000000         0.0000000000       -37.2492383309      106.1812362309       51.6068796924
atom        13.8565300000       13.5268700000       15.4434100000 H         0.0000000000         0.0000000000        81.7764327467       15.2306089361      -93.4075334669
atom        14.6368400000       13.5063300000       14.6709900000 C         0.0000000000         0.0000000000       207.5500266101      102.4257329432      -29.4074908263
atom        14.2110900000       16.0444500000       14.4794100000 O         0.0000000000         0.0000000000       246.8626523011      -52.6405885645       32.4202285857
atom        16.2560300000       16.6050400000       14.7081500000 O         0.0000000000         0.0000000000      -190.3105173824     -229.0670093508      -19.5951151267
atom        15.5667500000       14.3226200000       14.3550900000 N         0.0000000000         0.0000000000      -221.0761550383      -90.6511028843       79.9250581518
atom        15.3774100000       15.7758900000       14.6117900000 N         0.0000000000         0.0000000000       -87.5444148375      148.5233381096      -21.5421500706
energy     -1408.6944905393
charge 0
end
begin
comment generated by PY
lattice        30.0000000000         0.0000000000         0.0000000000
lattice         0.0000000000        30.0000000000         0.0000000000
lattice         0.0000000000         0.0000000000        30.0000000000
atom        14.7468900000       12.3872900000       14.4905400000 H         0.0000000000         0.0000000000        11.2757140579      126.7487068796       27.8777730604
atom        13.8682200000       13.9350400000       15.2199200000 H         0.0000000000         0.0000000000       100.4696835269      -54.0767823694      -50.3659235789
atom        14.7520200000       13.4696000000       14.7342800000 C         0.0000000000         0.0000000000       108.7523726637      168.1323696407      -98.7192367060
atom        14.1077000000       16.1543300000       14.4632500000 O         0.0000000000         0.0000000000       298.4366732983      -81.2268552682       55.2079596688
atom        16.3149000000       16.5151600000       14.7386500000 O         0.0000000000         0.0000000000      -279.6789585091     -182.7516197428      -18.9504514921
atom        15.6282200000       14.2668000000       14.2587900000 N         0.0000000000         0.0000000000      -232.6892276842     -123.3662079712      146.9435291133
atom        15.2793900000       15.8225100000       14.6347900000 N         0.0000000000         0.0000000000        -6.5705804943      146.5767634991      -62.0116832012
energy     -1380.0803149380
charge 0
end
begin
comment generated by PY
lattice        30.0000000000         0.0000000000         0.0000000000
lattice         0.0000000000        30.0000000000         0.0000000000
lattice         0.0000000000         0.0000000000        30.0000000000
atom        15.0645100000       12.4970600000       14.8440900000 H         0.0000000000         0.0000000000       -31.8506202640      116.0329659851      -12.7270749329
atom        13.8414200000       13.8562300000       15.2265500000 H         0.0000000000         0.0000000000       107.0316757187      -21.1957067477      -57.7994804685
atom        14.7823200000       13.5474300000       14.7644700000 C         0.0000000000         0.0000000000       172.7104629984       93.8202749945      -72.2525294348
atom        14.0907600000       16.2459600000       14.5214600000 O         0.0000000000         0.0000000000       285.8121513578     -125.1759059993      -26.8113209407
atom        16.2577800000       16.3823200000       14.8112800000 O         0.0000000000         0.0000000000      -250.8939728759     -133.1287421790      -94.7646557454
atom        15.7023800000       14.2574300000       14.2271900000 N         0.0000000000         0.0000000000      -290.4529340013      -81.3657824645      148.4480839343
atom        15.2431000000       15.8099900000       14.4652600000 N         0.0000000000         0.0000000000         7.5728958811      151.0075847270      115.9258411162
energy     -1393.0800870315
charge 0
end
begin
comment generated by PY
lattice        30.0000000000         0.0000000000         0.0000000000
lattice         0.0000000000        30.0000000000         0.0000000000
lattice         0.0000000000         0.0000000000        30.0000000000
atom        15.2321600000       12.5627400000       15.1374600000 H         0.0000000000         0.0000000000       -39.8660591566      116.3951820972      -50.4458841411
atom        13.8492400000       13.9202000000       15.0802400000 H         0.0000000000         0.0000000000       118.3080770376      -35.5255245040      -11.1049461444
atom        14.8690700000       13.5697600000       14.8407900000 C         0.0000000000         0.0000000000        84.6581106149      159.2606427556     -117.6422127781
atom        14.1285100000       16.2365100000       14.5065300000 O         0.0000000000         0.0000000000       258.5512407260     -125.6380017277      -52.6223829055
atom        16.2300300000       16.2936600000       14.8734000000 O         0.0000000000         0.0000000000      -208.1441327022     -120.2194435422     -128.8935404494
atom        15.5882000000       14.3815600000       14.1581400000 N         0.0000000000         0.0000000000      -172.9751599413     -108.0366617803      187.8606785607
atom        15.2588900000       15.7695700000       14.4044000000 N         0.0000000000         0.0000000000       -40.5113908742      113.7761363367      172.8021587911
energy     -1408.5417612691
charge 0
end
begin
comment generated by PY
lattice        30.0000000000         0.0000000000         0.0000000000
lattice         0.0000000000        30.0000000000         0.0000000000
lattice         0.0000000000         0.0000000000        30.0000000000
atom        15.1265400000       12.5675100000       14.6533500000 H         0.0000000000         0.0000000000       -35.2995589006      116.2316761002       27.7112513605
atom        14.2071200000       13.9178100000       15.6999600000 H         0.0000000000         0.0000000000        79.2678552101      -29.9595230803     -100.6988457326
atom        14.8785500000       13.6094600000       14.8665800000 C         0.0000000000         0.0000000000       127.4105184246      107.7043482734     -128.3338923072
atom        14.0806600000       16.1976100000       14.3946900000 O         0.0000000000         0.0000000000       304.7308108546     -104.9983675320       42.4253194278
atom        16.3155200000       16.3063600000       14.8935400000 O         0.0000000000         0.0000000000      -282.2254129872     -126.0504608103      -86.4495639363
atom        15.5265600000       14.3848200000       14.0975800000 N         0.0000000000         0.0000000000      -200.2876991391      -65.9780722877      240.7479182918
atom        15.2513700000       15.7620200000       14.5379400000 N         0.0000000000         0.0000000000         6.3840889506      103.0865500924        4.5975210794
energy     -1400.1332165238
charge 0
end
begin
comment generated by PY
lattice        30.0000000000         0.0000000000         0.0000000000
lattice         0.0000000000        30.0000000000         0.0000000000
lattice         0.0000000000         0.0000000000        30.0000000000
atom        14.6044100000       12.5126500000       14.5247500000 H         0.0000000000         0.0000000000        52.6189815865      113.7500408847       29.2856928990
atom        14.6778000000       13.7043600000       15.9252200000 H         0.0000000000         0.0000000000        23.5459225782      -11.9936752435     -118.3349913920
atom        14.9156200000       13.5065400000       14.8761800000 C         0.0000000000         0.0000000000        57.1964827478      158.3509574905     -106.2819795322
atom        14.1773800000       16.1828600000       14.3490500000 O         0.0000000000         0.0000000000       254.5657765012      -90.4474815085       48.1414559636
atom        16.2747500000       16.3924900000       14.9186900000 O         0.0000000000         0.0000000000      -238.2306379612     -162.6934112330      -90.1623484400
atom        15.3987500000       14.4038200000       14.0926700000 N         0.0000000000         0.0000000000      -138.9433172119     -120.2579347515      225.2408169584
atom        15.2871300000       15.7689000000       14.5511100000 N         0.0000000000         0.0000000000       -10.7423079334      113.2718649579       12.0825964011
energy     -1417.8040923028
charge 0
end
begin
comment generated by PY
lattice        30.0000000000         0.0000000000         0.0000000000
lattice         0.0000000000        30.0000000000         0.0000000000
lattice         0.0000000000         0.0000000000        30.0000000000
atom        15.0032800000       12.4552200000       14.3730700000 H         0.0000000000         0.0000000000       -11.4076202852      108.2178025840       70.0120279746
atom        14.8506400000       13.5147200000       16.0206500000 H         0.0000000000         0.0000000000        17.8369592506       -7.5448046244     -128.3744873262
atom        14.9845000000       13.4155200000       14.9192900000 C         0.0000000000         0.0000000000        55.0252441996      150.6696402382     -158.9343796695
atom        14.2065700000       16.2672200000       14.3019100000 O         0.0000000000         0.0000000000       271.6004234394     -123.2427723639       52.5134987536
atom        16.2766800000       16.4510300000       14.9746000000 O         0.0000000000         0.0000000000      -220.6669548457     -206.3486976474     -117.0214887839
atom        15.2166300000       14.3368300000       14.0650000000 N         0.0000000000         0.0000000000       -13.8939788940     -113.1635152785      249.4526336612
atom        15.3337600000       15.7683100000       14.5358000000 N         0.0000000000         0.0000000000       -98.4929555033      191.3877296377       32.3697668890
energy     -1380.5505636770
charge 0
end
begin
comment generated by PY
lattice        30.0000000000         0.0000000000         0.0000000000
lattice         0.0000000000        30.0000000000         0.0000000000
lattice         0.0000000000         0.0000000000        30.0000000000
atom        15.0069300000       12.3356200000       14.6000600000 H         0.0000000000         0.0000000000        13.9650712263      120.5347732602       29.7398330670
atom        15.0871600000       13.5827200000       16.0053300000 H         0.0000000000         0.0000000000         0.3440188455      -20.9520448477     -118.2632098900
atom        15.1042200000       13.3771300000       14.9316400000 C         0.0000000000         0.0000000000        19.3170536270      169.0947736484     -126.3431566591
atom        14.1784700000       16.4045500000       14.2431100000 O         0.0000000000         0.0000000000       274.1529615678     -134.6791696596       93.8482385542
atom        16.2818000000       16.2997800000       14.9759200000 O         0.0000000000         0.0000000000      -266.8602473370     -107.5196455739      -95.2753398465
atom        15.2258400000       14.2969700000       14.0592700000 N         0.0000000000         0.0000000000       -32.0505677371     -147.7771045916      240.2123621277
atom        15.2309600000       15.8607100000       14.5815200000 N         0.0000000000         0.0000000000        -8.8419534097      121.2986093678      -23.8854397716
energy     -1394.1483852196
charge 0
end
begin
comment generated by PY
lattice        30.0000000000         0.0000000000         0.0000000000
lattice         0.0000000000        30.0000000000         0.0000000000
lattice         0.0000000000         0.0000000000        30.0000000000
atom        15.2058400000       12.4174000000       14.6350400000 H         0.0000000000         0.0000000000         9.0408336230      124.4047986895       36.0948368101
atom        15.1382000000       13.6088600000       16.0784700000 H         0.0000000000         0.0000000000         8.3787787920       -1.7798825709     -125.6119621491
atom        15.2190100000       13.4707500000       14.9872900000 C         0.0000000000         0.0000000000       -14.3400421354      121.3362496265     -158.6223477245
atom        14.1936300000       16.5207400000       14.2482100000 O         0.0000000000         0.0000000000       232.3799050962     -208.1313692773       65.2101213329
atom        16.2362400000       16.1369200000       14.9881200000 O         0.0000000000         0.0000000000      -271.7055624302      -83.3421890176     -110.3321255322
atom        15.2389900000       14.3386600000       14.0467900000 N         0.0000000000         0.0000000000       -36.2789252120     -106.2861190306      271.1545109108
atom        15.1362200000       15.7843200000       14.5187500000 N         0.0000000000         0.0000000000        72.5042520447      153.8234400328       22.1490438814
energy     -1393.3684756998
charge 0
end
begin
comment generated by PY
lattice        30.0000000000         0.0000000000         0.0000000000
lattice         0.0000000000        30.0000000000         0.0000000000
lattice         0.0000000000         0.0000000000        30.0000000000
atom        15.6999500000       12.6117700000       14.7590500000 H         0.0000000000         0.0000000000       -65.1836465590      105.4913953248       23.8703344132
atom        15.1819900000       13.9956600000       16.0148700000 H         0.0000000000         0.0000000000        18.5475995407      -49.4532252310     -116.1109034478
atom        15.2806200000       13.5889500000       14.9913400000 C         0.0000000000         0.0000000000        -1.8453235740      172.2243320334     -148.0516006404
atom        14.2236800000       16.4790200000       14.2522200000 O         0.0000000000         0.0000000000       220.2211250210     -184.4545394289       32.7090690896
atom        16.2144900000       16.0312500000       15.0515900000 O         0.0000000000         0.0000000000      -245.7246300059      -68.6333061892     -152.1198105898
atom        15.1145500000       14.4111000000       14.0337300000 N         0.0000000000         0.0000000000        64.4843747824      -89.1460219215      260.0273634900
atom        15.1599100000       15.7374000000       14.4469100000 N         0.0000000000         0.0000000000         9.4914145463      113.9337538714       99.6725347241
energy     -1419.0720725294
charge 0
end
begin
comment generated by PY
lattice        30.0000000000         0.0000000000         0.0000000000
lattice         0.0000000000        30.0000000000         0.0000000000
lattice         0.0000000000         0.0000000000        30.0000000000
atom        15.0877200000       12.6186400000       14.8946900000 H         0.0000000000         0.0000000000        39.7326069531      120.3114295168        8.1517547370
atom        15.7262600000       14.0474800000       15.9593500000 H         0.0000000000         0.0000000000       -42.3923762306      -30.9271388065     -116.8842514712
atom        15.3600100000       13.6826900000       14.9943600000 C         0.0000000000         0.0000000000       -90.0487447780       77.3772952936     -171.5082807149
atom        14.1924700000       16.4434800000       14.1983100000 O         0.0000000000         0.0000000000       264.5506698766     -153.4403282779       90.7301351684
atom        16.2312000000       15.9833900000       15.1074900000 O         0.0000000000         0.0000000000      -266.0131659951      -23.3431142634     -145.4321417638
atom        15.0385700000       14.3840800000       13.9615800000 N         0.0000000000         0.0000000000        97.3834793249      -61.1386590784      330.1195964146
atom        15.1891900000       15.7751300000       14.5084800000 N         0.0000000000         0.0000000000        -3.2033832951       71.1713079523        4.8170606432
energy     -1402.6788177168
charge 0
end
begin
comment generated by PY
lattice        30.0000000000         0.0000000000         0.0000000000
lattice         0.0000000000        30.0000000000         0.0000000000
lattice         0.0000000000         0.0000000000        30.0000000000
atom        15.0134300000       12.4885000000       14.9919200000 H         0.0000000000         0.0000000000        38.1400231764      120.0748102372      -20.2294324287
atom        16.1493800000       13.8430900000       15.6803600000 H         0.0000000000         0.0000000000      -101.5066939066      -25.5712791415      -76.3648192066
atom        15.3555300000       13.5313300000       14.9517700000 C         0.0000000000         0.0000000000       -19.5225856723      145.8128788435     -143.4684814372
atom        14.2417100000       16.4898600000       14.1979900000 O         0.0000000000         0.0000000000       251.2024001401     -189.3389290450       51.4710034450
atom        16.1839800000       16.1033100000       15.1445500000 O         0.0000000000         0.0000000000      -228.8822630325      -89.2104605904     -180.5050763753
atom        14.9827500000       14.3463300000       14.0263200000 N         0.0000000000         0.0000000000        85.9214278344     -107.7254568468      262.6308778979
atom        15.2216500000       15.7765700000       14.4512700000 N         0.0000000000         0.0000000000       -25.3312093491      145.9338001199      106.4560359481
energy     -1392.4886711895
charge 0
end
begin
comment generated by PY
lattice        30.0000000000         0.0000000000         0.0000000000
lattice         0.0000000000        30.0000000000         0.0000000000
lattice         0.0000000000         0.0000000000        30.0000000000