begin
comment generated by PY
lattice        30.0000000000         0.0000000000         0.0000000000
lattice         0.0000000000        30.0000000000         0.0000000000
lattice         0.0000000000         0.0000000000        30.0000000000
atom        14.0509000000       16.0704000000       15.5879000000 H         0.0000000000         0.0000000000        34.8843911579       -0.6427370219     -122.2106960259
atom        13.3710000000       16.4259000000       14.0124000000 H         0.0000000000         0.0000000000       117.5688224781      -41.8818364710       51.7354413878
atom        17.4891000000       17.5262000000       14.4551000000 H         0.0000000000         0.0000000000       -89.8450011921      -92.7531813643       32.6630742835
atom        16.7900000000       16.8021000000       15.8984000000 H         0.0000000000         0.0000000000       -12.4589274727      -12.6168165018     -124.4593840412
atom        16.1433000000       14.0435000000       15.5852000000 H         0.0000000000         0.0000000000        -1.9115951348       34.8856773726     -122.2051128887
atom        16.5175000000       13.3761000000       14.0085000000 H         0.0000000000         0.0000000000       -45.4380915208      116.1848597343       51.9307228189
atom        14.3180000000       16.1105000000       14.5057000000 C         0.0000000000         0.0000000000        61.9614451375       18.9549620278       -4.6140000484
atom        16.7466000000       16.7595000000       14.7819000000 C         0.0000000000         0.0000000000       -65.1276208111      -67.1112460859      -71.6862245988
atom        16.1735000000       14.3125000000       14.5031000000 C         0.0000000000         0.0000000000        16.8189459462       62.5207527981       -4.5492978356
atom        12.4697000000       13.9709000000       14.9789000000 O         0.0000000000         0.0000000000       314.3937172093      -80.5501942546      -91.2422085373
atom        14.0973000000       12.4029000000       14.9929000000 O         0.0000000000         0.0000000000       -91.4673624033      310.2048094756      -94.7378526241
atom        15.3472000000       17.1831000000       14.3519000000 N         0.0000000000         0.0000000000        42.2952633715     -224.3930849196      104.5074763255
atom        14.6876000000       14.6361000000       14.0530000000 N         0.0000000000         0.0000000000        54.1076245710       55.5339756338      153.0632796607
atom        17.2131000000       15.3748000000       14.3486000000 N         0.0000000000         0.0000000000      -225.4041368279       35.1349257103      105.0905930910
atom        13.6756000000       13.5912000000       14.6845000000 N         0.0000000000         0.0000000000      -110.3768865088     -113.4709591940      136.7146690325
energy     -2754.4497708291
charge 0
end
begin
comment generated by PY
lattice        30.0000000000         0.0000000000         0.0000000000
lattice         0.0000000000        30.0000000000         0.0000000000
lattice         0.0000000000         0.0000000000        30.0000000000
atom        14.0505000000       16.2005000000       15.7579000000 H         0.0000000000         0.0000000000        52.1761936699      -23.7798339239     -103.0393070509
atom        13.4047000000       16.6600000000       14.3863000000 H         0.0000000000         0.0000000000       119.2624237817      -74.2798330212       18.9579318640
atom        17.5549000000       17.5138000000       14.7283000000 H         0.0000000000         0.0000000000       -84.9349936391      -93.5148199789       -0.5398518213
atom        16.8398000000       16.3807000000       15.8936000000 H         0.0000000000         0.0000000000        -8.9248373761       32.7619061767     -124.2596952991
atom        16.4169000000       13.9030000000       15.1720000000 H         0.0000000000         0.0000000000       -38.8865898487       48.0132895737     -103.4194029287
atom        16.3586000000       13.4903000000       13.5485000000 H         0.0000000000         0.0000000000       -26.4920955930       96.9287235635       59.7166655428
atom        14.3854000000       16.1389000000       14.7270000000 C         0.0000000000         0.0000000000        21.4924002084       78.8752137548      -18.2614265185
atom        16.8161000000       16.7211000000       14.8164000000 C         0.0000000000         0.0000000000       -91.7795707480      -70.2235273842      -47.4708166676
atom        16.1534000000       14.3129000000       14.1922000000 C         0.0000000000         0.0000000000        19.3254635304       67.6520967199       42.3263817602
atom        12.3688000000       13.6667000000       14.4493000000 O         0.0000000000         0.0000000000       337.4169504909      -20.5407486105       35.5794274921
atom        14.0904000000       12.6896000000       15.5484000000 O         0.0000000000         0.0000000000       -86.1394456893      213.0558046395     -239.4956102493
atom        15.4117000000       17.2086000000       14.5553000000 N         0.0000000000         0.0000000000        48.9852391835     -250.2213166926       89.0379677006
atom        14.6068000000       14.6822000000       14.1500000000 N         0.0000000000         0.0000000000        95.6002241203       45.5319147467       95.5954603434
atom        17.2444000000       15.3920000000       14.0832000000 N         0.0000000000         0.0000000000      -210.8004656909       16.2707189913      122.5736869086
atom        13.6647000000       13.5374000000       14.6717000000 N         0.0000000000         0.0000000000      -146.3012802789      -66.5298285549      172.6983989238
energy     -2722.0192424723
charge 0
end
begin
comment generated by PY
lattice        30.0000000000         0.0000000000         0.0000000000
lattice         0.0000000000        30.0000000000         0.0000000000
lattice         0.0000000000         0.0000000000        30.0000000000
atom        14.2234000000       15.8851000000       15.8978000000 H         0.0000000000         0.0000000000        22.2676743114       18.6530569209     -117.5323922773
atom        13.4693000000       16.5252000000       14.4534000000 H         0.0000000000         0.0000000000       112.0948876907      -43.8871531249       44.9623557978
atom        17.3465000000       17.4452000000       14.0517000000 H         0.0000000000         0.0000000000       -53.6748300599      -80.0798588856       64.9212146107
atom        17.3445000000       16.7414000000       15.6592000000 H         0.0000000000         0.0000000000       -56.0812737490      -11.4119624920     -113.1039937247
atom        16.2613000000       13.8516000000       15.2435000000 H         0.0000000000         0.0000000000       -23.8552165347       57.8620668844     -116.7480249353
atom        16.3160000000       13.3985000000       13.5333000000 H         0.0000000000         0.0000000000       -27.8122077218      111.0481238209       71.9517755532
atom        14.4119000000       16.1053000000       14.8448000000 C         0.0000000000         0.0000000000        30.7354782773       11.9151740301       -6.7050403985
atom        16.8463000000       16.7103000000       14.6605000000 C         0.0000000000         0.0000000000      -100.2358412102      -38.8450084905      -23.1799270094
atom        16.1381000000       14.2880000000       14.1986000000 C         0.0000000000         0.0000000000        60.5692111997       57.7102573801        2.7252972611
atom        12.4646000000       13.3694000000       14.1662000000 O         0.0000000000         0.0000000000       291.9752289159      106.1759676737      141.9692762438
atom        14.0768000000       12.9545000000       15.6835000000 O         0.0000000000         0.0000000000      -111.4397171841      201.7811355606     -232.5525955019
atom        15.4665000000       17.2015000000       14.9134000000 N         0.0000000000         0.0000000000        70.2676417224     -254.9156848625      -50.2754023680
atom        14.5305000000       14.7626000000       14.0569000000 N         0.0000000000         0.0000000000        82.5211603615       50.2058768327      153.9094604537
atom        17.1793000000       15.2818000000       13.9797000000 N         0.0000000000         0.0000000000      -218.1681671274       20.9256460600      139.2173575040
atom        13.5978000000       13.6923000000       14.7527000000 N         0.0000000000         0.0000000000       -79.1640058311     -207.1379873080       40.4407818514
energy     -2739.1742003154
charge 0
end
begin
comment generated by PY
lattice        30.0000000000         0.0000000000         0.0000000000
lattice         0.0000000000        30.0000000000         0.0000000000
lattice         0.0000000000         0.0000000000        30.0000000000
atom        14.4220000000       15.8004000000       15.9504000000 H         0.0000000000         0.0000000000        12.8001029925       36.2653626139     -108.6115845519
atom        13.4014000000       16.5508000000       14.8176000000 H         0.0000000000         0.0000000000       116.3668053494      -48.7893972785       -2.7191217990
atom        17.6066000000       17.4274000000       14.4315000000 H         0.0000000000         0.0000000000       -92.2960733342      -99.2463560689       34.0650413310
atom        17.0765000000       16.6902000000       15.9226000000 H         0.0000000000         0.0000000000       -35.0037238703      -16.9696853928     -126.7879943894
atom        16.0638000000       13.4651000000       14.6517000000 H         0.0000000000         0.0000000000         7.7762004022      100.1188532828      -85.9834170835
atom        16.2709000000       13.8336000000       12.9119000000 H         0.0000000000         0.0000000000       -31.6942931662       61.4555123209      104.2343845624
atom        14.4125000000       16.1652000000       14.9338000000 C         0.0000000000         0.0000000000        80.8926618085       36.5424942456      -22.2884790376
atom        16.8435000000       16.6426000000       14.8024000000 C         0.0000000000         0.0000000000       -79.2917445185      -45.6176185480      -65.9256167007
atom        16.0558000000       14.3135000000       13.8710000000 C         0.0000000000         0.0000000000        -5.4017298493       78.5243287643      108.5373755078
atom        12.5671000000       13.3830000000       14.1047000000 O         0.0000000000         0.0000000000       295.2999295595       50.0243172783      166.3568507529
atom        14.0240000000       13.0510000000       15.8710000000 O         0.0000000000         0.0000000000       -73.7706999569      137.1418231051     -293.8020346319
atom        15.4175000000       17.2013000000       14.6444000000 N         0.0000000000         0.0000000000        28.9666701035     -255.4540467321       96.4559202042
atom        14.5605000000       14.7280000000       14.0865000000 N         0.0000000000         0.0000000000        92.9503629457        3.3796871254       68.8222832395
atom        17.1212000000       15.2955000000       14.1712000000 N         0.0000000000         0.0000000000      -185.6959104267       37.2977966460       54.9830904675
atom        13.6992000000       13.5782000000       14.7506000000 N         0.0000000000         0.0000000000      -131.8990680392      -74.6729544225       72.6628321287
energy     -2734.4191018697
charge 0
end
begin
comment generated by PY
lattice        30.0000000000         0.0000000000         0.0000000000
lattice         0.0000000000        30.0000000000         0.0000000000
lattice         0.0000000000         0.0000000000        30.0000000000
atom        13.6090000000       15.9753000000       15.5553000000 H         0.0000000000         0.0000000000        88.6349113102        7.0206557104      -96.0733160952
atom        13.5487000000       16.6497000000       13.9476000000 H         0.0000000000         0.0000000000        95.3289457850      -58.2470943693       83.4841634530
atom        17.6977000000       17.3012000000       14.7919000000 H         0.0000000000         0.0000000000       -84.8537291396      -81.1363870458        5.1928552910
atom        17.3093000000       16.0793000000       15.9673000000 H         0.0000000000         0.0000000000       -50.8727437357       44.1143360392     -115.0738324494
atom        16.1075000000       13.8563000000       14.8884000000 H         0.0000000000         0.0000000000       -15.5622329739       68.4965962980      -91.6916317584
atom        16.1990000000       13.6237000000       13.2271000000 H         0.0000000000         0.0000000000       -23.9733288394      104.8444133367       76.3473728020
atom        14.2743000000       16.0876000000       14.6654000000 C         0.0000000000         0.0000000000        35.9779327159        1.4653416167      -55.4447575136
atom        16.9851000000       16.5174000000       14.9400000000 C         0.0000000000         0.0000000000      -102.9418101480      -97.0002555680      -78.7143681464
atom        16.0181000000       14.4223000000       13.9645000000 C         0.0000000000         0.0000000000        34.4199099932       31.9031506673       33.0043822105
atom        12.5473000000       13.3185000000       14.2545000000 O         0.0000000000         0.0000000000       297.0053883480       99.6948195357      131.9163000612
atom        14.1385000000       13.1177000000       15.8258000000 O         0.0000000000         0.0000000000      -106.8133831028      149.5935743345     -272.0552518498
atom        15.5012000000       17.0530000000       14.9217000000 N         0.0000000000         0.0000000000        22.6608779382     -178.9179192354       -6.8476305471
atom        14.4555000000       14.7802000000       13.9196000000 N         0.0000000000         0.0000000000       111.4891948230       58.1442413391      163.0646038430
atom        17.1182000000       15.4119000000       13.9672000000 N         0.0000000000         0.0000000000      -183.3813556417        2.9618026749      148.7803033851
atom        13.6711000000       13.6559000000       14.7788000000 N         0.0000000000         0.0000000000      -117.1187973326     -152.9372422734       74.1113073140
energy     -2739.9900993097
charge 0
end
begin
comment generated by PY
lattice        30.0000000000         0.0000000000         0.0000000000
lattice         0.0000000000        30.0000000000         0.0000000000
lattice         0.0000000000         0.0000000000        30.0000000000
atom        14.0451000000       15.9754000000       15.8378000000 H         0.0000000000         0.0000000000        29.0676529137       15.1139699836      -96.6206862631
atom        13.3097000000       16.5963000000       14.4292000000 H         0.0000000000         0.0000000000       116.3150887980      -48.6311098109       39.3392839107
atom        17.5096000000       17.3605000000       14.6138000000 H         0.0000000000         0.0000000000       -86.5314845630     -109.2914882344       32.0030386812
atom        16.8070000000       16.1530000000       15.8862000000 H         0.0000000000         0.0000000000        -3.9995134794       35.7699443082     -118.8395063773
atom        16.5247000000       13.6748000000       15.1149000000 H         0.0000000000         0.0000000000       -41.5316967412       76.1023018745     -105.6086538173
atom        16.3503000000       13.5001000000       13.2864000000 H         0.0000000000         0.0000000000       -13.5606271544       93.2873058402      101.8183195435
atom        14.2644000000       16.1751000000       14.8329000000 C         0.0000000000         0.0000000000        75.6590124719        3.1408417015      -43.9674915960
atom        16.7946000000       16.4944000000       14.8306000000 C         0.0000000000         0.0000000000       -37.5237104567        8.4533484612      -82.2828028495
atom        16.2986000000       14.2519000000       14.1522000000 C         0.0000000000         0.0000000000        85.5900546558       90.4080291147      -50.6032390208
atom        12.4764000000       13.4002000000       14.2546000000 O         0.0000000000         0.0000000000       307.9085164125      100.0852514298      100.6197847222
atom        14.1398000000       12.9651000000       15.6883000000 O         0.0000000000         0.0000000000      -102.9929322638      191.8150364261     -242.9718862555
atom        15.3798000000       17.2243000000       14.7831000000 N         0.0000000000         0.0000000000         6.3086784706     -266.7798059641       26.6089285424
atom        14.5413000000       14.8235000000       14.0816000000 N         0.0000000000         0.0000000000        -0.8960853050       26.8598322646      138.0525354527
atom        17.1763000000       15.3464000000       13.8965000000 N         0.0000000000         0.0000000000      -225.0204108776      -41.3683079677      205.6355989496
atom        13.6542000000       13.6950000000       14.7157000000 N         0.0000000000         0.0000000000      -108.7932390025     -174.9652094273       96.8172763769
energy     -2693.3509456031
charge 0
end
begin
comment generated by PY
lattice        30.0000000000         0.0000000000         0.0000000000
lattice         0.0000000000        30.0000000000         0.0000000000
lattice         0.0000000000         0.0000000000        30.0000000000
atom        14.0037000000       15.8577000000       15.6992000000 H         0.0000000000         0.0000000000        45.0902931654       13.9165963283     -107.2390271971
atom        13.2304000000       16.4992000000       14.4102000000 H         0.0000000000         0.0000000000       132.3862363865      -52.0715652778       10.6217189698
atom        17.5393000000       17.4382000000       14.5751000000 H         0.0000000000         0.0000000000       -95.6738416465      -94.4654159229       31.2019989627
atom        16.9862000000       16.5712000000       15.9805000000 H         0.0000000000         0.0000000000       -33.6083986534        0.7305533957     -116.9624498648
atom        16.2817000000       13.6621000000       14.9648000000 H         0.0000000000         0.0000000000       -24.6764017550       60.1137590739      -90.2318790819
atom        16.4306000000       13.4874000000       13.2600000000 H         0.0000000000         0.0000000000       -32.0210093863       95.5360991295       84.3704784180
atom        14.2756000000       16.0821000000       14.6701000000 C         0.0000000000         0.0000000000        54.4630952562       37.1094702703        4.7460055791
atom        16.7779000000       16.6507000000       14.9013000000 C         0.0000000000         0.0000000000       -52.5432386446      -61.1063258502      -85.8876751164
atom        16.1797000000       14.2148000000       14.0553000000 C         0.0000000000         0.0000000000        29.3539193293       99.6102112360       41.6032130710
atom        12.4046000000       13.7873000000       14.6427000000 O         0.0000000000         0.0000000000       338.8033241559      -36.1319127895       -6.9228622798
atom        14.2624000000       12.7856000000       15.4718000000 O         0.0000000000         0.0000000000      -135.1237294429      210.2704608315     -216.6232235962
atom        15.3064000000       17.1530000000       14.6563000000 N         0.0000000000         0.0000000000        34.4207997366     -235.5309002653       57.5833031738
atom        14.5721000000       14.7201000000       13.8932000000 N         0.0000000000         0.0000000000        58.5442316275        9.5221512034      154.2414058685
atom        17.2325000000       15.3146000000       14.2392000000 N         0.0000000000         0.0000000000      -204.0427678231       17.6060704879       73.1902302854
atom        13.6945000000       13.6234000000       14.6741000000 N         0.0000000000         0.0000000000      -115.3718492450      -65.1088387902      166.3082928079
energy     -2701.8836543096
charge 0
end
begin
comment generated by PY
lattice        30.0000000000         0.0000000000         0.0000000000
lattice         0.0000000000        30.0000000000         0.0000000000
lattice         0.0000000000         0.0000000000        30.0000000000
atom        13.9238000000       16.0046000000       15.6095000000 H         0.0000000000         0.0000000000        51.3288279472        3.6253519055     -114.3506366250
atom        13.4000000000       16.3055000000       13.9609000000 H         0.0000000000         0.0000000000       113.3795414935      -38.6425535328       70.2704010153
atom        17.3535000000       17.6946000000       14.2098000000 H         0.0000000000         0.0000000000       -67.7154713282     -101.2431505954       45.6962366124
atom        16.8914000000       17.1101000000       15.7610000000 H         0.0000000000         0.0000000000       -23.1253703581      -37.4045614256     -120.5058334748
atom        16.3777000000       14.1387000000       15.7284000000 H         0.0000000000         0.0000000000       -13.5137810160       43.1543672186     -117.7862859127
atom        16.6975000000       13.4389000000       14.2139000000 H         0.0000000000         0.0000000000       -47.6501749329      121.8455094047       41.6804281679
atom        14.3129000000       16.0315000000       14.5755000000 C         0.0000000000         0.0000000000        46.5613794250        5.4233379360      -47.1032398448
atom        16.7534000000       16.8790000000       14.6668000000 C         0.0000000000         0.0000000000       -79.9598210721      -59.0093803563      -59.2193326853
atom        16.3300000000       14.4196000000       14.6513000000 C         0.0000000000         0.0000000000        49.1081924644       18.4482264013      -19.3898667632
atom        12.4808000000       13.9835000000       15.0373000000 O         0.0000000000         0.0000000000       307.9641592494      -73.0969162566      -92.3419356276
atom        13.8398000000       12.2674000000       14.7230000000 O         0.0000000000         0.0000000000        -8.4554137863      334.3648647135      -18.4995873611
atom        15.3115000000       17.1682000000       14.3273000000 N         0.0000000000         0.0000000000        69.8129260040     -201.5607872312      117.7302301523
atom        14.7579000000       14.5695000000       14.2044000000 N         0.0000000000         0.0000000000        18.7547646818       98.8928275042      125.7509744978
atom        17.3145000000       15.4728000000       14.3621000000 N         0.0000000000         0.0000000000      -242.8673354207       32.2202550611      113.5902548062
atom        13.6652000000       13.5563000000       14.7024000000 N         0.0000000000         0.0000000000      -173.6224194720     -147.0178799288       74.4783391638
energy     -2728.7695027937
charge 0
end
begin
comment generated by PY
lattice        30.0000000000         0.0000000000         0.0000000000
lattice         0.0000000000        30.0000000000         0.0000000000
lattice         0.0000000000         0.0000000000        30.0000000000
atom        13.2789000000       16.1565000000       14.0085000000 H         0.0000000000         0.0000000000       129.4367140316      -22.0087126928      -18.9125182999
atom        14.4978000000       16.2999000000       12.7224000000 H         0.0000000000         0.0000000000        -9.7470657721      -42.2985342633      117.6493212414
atom        17.1824000000       17.5803000000       15.1302000000 H         0.0000000000         0.0000000000       -84.7490663580      -93.4435902148      -30.4976040844
atom        16.2882000000       16.4952000000       16.0970000000 H         0.0000000000         0.0000000000        13.0572572458       17.7497735047     -127.4005937101
atom        16.3059000000       14.1387000000       15.6256000000 H         0.0000000000         0.0000000000       -27.4435394906       31.8807003563      -96.5082994882
atom        16.8145000000       13.4182000000       14.1920000000 H         0.0000000000         0.0000000000       -73.9635820865      120.9193984209       36.9339581244
atom        14.3640000000       16.0201000000       13.8009000000 C         0.0000000000         0.0000000000        76.4278017650       34.8450367884       48.7040392761
atom        16.4881000000       16.7351000000       15.0017000000 C         0.0000000000         0.0000000000       -51.0109436276      -74.2715435346      -56.9932548401
atom        16.2630000000       14.3894000000       14.6077000000 C         0.0000000000         0.0000000000        75.9193958242       49.0120670488      -45.4046865300
atom        13.1223000000       14.0905000000       15.7859000000 O         0.0000000000         0.0000000000       205.5234721276     -108.9669426310     -227.8147986719
atom        13.5009000000       12.4177000000       14.3682000000 O         0.0000000000         0.0000000000       129.2979204744      293.6928588862      109.1038245601
atom        15.1386000000       17.1142000000       14.4012000000 N         0.0000000000         0.0000000000        74.6146003055     -218.6297296906       16.0391403366
atom        14.7943000000       14.4949000000       13.9570000000 N         0.0000000000         0.0000000000        60.1838950981       88.7618936021      113.0055559374
atom        17.1631000000       15.4948000000       14.4866000000 N         0.0000000000         0.0000000000      -258.5827785406       -0.4015788748      119.8758656967
atom        13.8683000000       13.5712000000       14.8379000000 N         0.0000000000         0.0000000000      -258.9636340576      -76.8404967053       42.2206504519
energy     -2749.8652929166
charge 0
end
begin
comment generated by PY
lattice        30.0000000000         0.0000000000         0.0000000000
lattice         0.0000000000        30.0000000000         0.0000000000
lattice         0.0000000000         0.0000000000        30.0000000000
atom        13.4789000000       15.8135000000       13.0400000000 H         0.0000000000         0.0000000000       132.3700997612       -5.7234349726       60.3704263957
atom        15.2207000000       15.7563000000       12.5434000000 H         0.0000000000         0.0000000000       -67.4532994750        3.4677644536       99.3672285745
atom        17.0278000000       17.6834000000       14.2625000000 H         0.0000000000         0.0000000000       -75.5655108791      -87.1638819070       61.5123591740
atom        16.1885000000       17.4992000000       15.7840000000 H         0.0000000000         0.0000000000        20.9156911699      -67.2837852376      -97.8103728304
atom        15.9609000000       14.2090000000       15.9075000000 H         0.0000000000         0.0000000000        12.2597864642       23.7575181778     -105.2157163550
atom        16.8888000000       13.4268000000       14.8092000000 H         0.0000000000         0.0000000000       -72.8602256356      116.1221727797      -12.5968329594
atom        14.5585000000       15.7796000000       13.4282000000 C         0.0000000000         0.0000000000        87.2111819998        2.9537025987       57.3487844820
atom        16.3613000000       16.9823000000       14.8366000000 C         0.0000000000         0.0000000000       -99.2980327965     -129.6835050688      -84.0164483866
atom        16.2610000000       14.3616000000       14.8915000000 C         0.0000000000         0.0000000000        -8.2089748597      121.9197648717       18.3678853681
atom        13.9854000000       13.4088000000       16.0657000000 O         0.0000000000         0.0000000000       -65.2040382249       89.0747316937     -305.4909744682
atom        12.8243000000       13.0913000000       14.1300000000 O         0.0000000000         0.0000000000       225.4681107391      183.3591600860      172.7127166099
atom        15.0106000000       17.0017000000       14.1838000000 N         0.0000000000         0.0000000000       123.5706545750     -152.4260232961      -11.1961492214
atom        14.9109000000       14.3600000000       14.0064000000 N         0.0000000000         0.0000000000        11.8616062026      111.7812883444       93.0618559757
atom        17.0176000000       15.5994000000       14.9386000000 N         0.0000000000         0.0000000000      -184.0688152844        1.6861908051       -9.5005720345
atom        13.7274000000       13.7199000000       14.8264000000 N         0.0000000000         0.0000000000       -40.9967368171     -211.8411843891       63.0874457966
energy     -2752.0773580780
charge 0
end
begin
comment generated by PY
lattice        30.0000000000         0.0000000000         0.0000000000
lattice         0.0000000000        30.0000000000         0.0000000000
lattice         0.0000000000         0.0000000000        30.0000000000
atom        13.8811000000       15.3280000000       12.4502000000 H         0.0000000000         0.0000000000       108.5187105041       -4.6464815438       70.1775877325
atom        15.5328000000       15.4926000000       12.0703000000 H         0.0000000000         0.0000000000       -61.3681248588      -22.7936498502      111.5931004702
atom        16.7942000000       17.0743000000       14.2921000000 H         0.0000000000         0.0000000000      -102.3111137626      -39.0821178106       53.0186611065
atom        15.6373000000       17.6479000000       15.5104000000 H         0.0000000000         0.0000000000        13.8237634306     -103.0893084334      -85.1687594897
atom        16.9451000000       13.6118000000       15.1552000000 H         0.0000000000         0.0000000000       -75.4367708564       89.5474925393      -46.2639030706
atom        17.2775000000       14.9085000000       14.0507000000 H         0.0000000000         0.0000000000      -107.4682522195      -52.5266414177       58.3845298140
atom        14.8595000000       15.3694000000       12.9485000000 C         0.0000000000         0.0000000000       -20.3742768495       47.1036993936      106.5409695642