begin
comment generated by PY
lattice        30.0000000000         0.0000000000         0.0000000000
lattice         0.0000000000        30.0000000000         0.0000000000
lattice         0.0000000000         0.0000000000        30.0000000000
atom        16.1481000000       14.7276000000       14.0571000000 H         0.0000000000         0.0000000000       -39.2155272062       43.6623983716      100.2990353799
atom        16.5497000000       15.3554000000       15.7521000000 H         0.0000000000         0.0000000000       -91.5665774934      -20.6649150155      -76.3063600733
atom        13.8649000000       15.0958000000       14.3912000000 H         0.0000000000         0.0000000000        86.6950698584       25.7763155400       87.9785230264
atom        15.7906000000       15.1376000000       15.0017000000 C         0.0000000000         0.0000000000      -211.1659863148       28.8751971575       17.7518630142
atom        14.5222000000       15.3581000000       15.2276000000 N         0.0000000000         0.0000000000       255.2534211560      -77.6489960536     -129.7222613473
energy      -837.7707445014
charge 0
end
begin
comment generated by PY
lattice        30.0000000000         0.0000000000         0.0000000000
lattice         0.0000000000        30.0000000000         0.0000000000
lattice         0.0000000000         0.0000000000        30.0000000000
atom        16.1884000000       14.9547000000       14.0038000000 H         0.0000000000         0.0000000000       -43.7895737782        3.8527678561      107.7370330424
atom        16.6064000000       15.4955000000       15.7350000000 H         0.0000000000         0.0000000000      -105.8105815520      -53.9883810953      -69.5613719600
atom        13.7578000000       15.2085000000       14.4109000000 H         0.0000000000         0.0000000000       109.6501557525        6.1016076259       83.9937966487
atom        15.7970000000       15.1103000000       15.0153000000 C         0.0000000000         0.0000000000      -203.7414327117      113.7442138495      -15.0619730856
atom        14.5175000000       15.3472000000       15.2196000000 N         0.0000000000         0.0000000000       243.6922092290      -69.7102782362     -107.1078877061
energy      -816.5470739584
charge 0
end
begin
comment generated by PY
lattice        30.0000000000         0.0000000000         0.0000000000
lattice         0.0000000000        30.0000000000         0.0000000000
lattice         0.0000000000         0.0000000000        30.0000000000
atom        16.1270000000       14.6494000000       14.0698000000 H         0.0000000000         0.0000000000       -29.2865404321       78.7287621936       93.8194429228
atom        16.4757000000       15.0283000000       15.7782000000 H         0.0000000000         0.0000000000       -67.7816626469       43.1133329478      -60.1367532034
atom        13.7417000000       15.1669000000       14.5089000000 H         0.0000000000         0.0000000000       103.1757930212       14.5719034287       51.8372825015
atom        15.8118000000       15.2142000000       15.0040000000 C         0.0000000000         0.0000000000      -261.0905248698     -115.5097021707      -11.9142154314
atom        14.5196000000       15.3163000000       15.2145000000 N         0.0000000000         0.0000000000       254.9826349278      -20.9042963995      -73.6053567895
energy      -826.6163169381
charge 0
end
begin
comment generated by PY
lattice        30.0000000000         0.0000000000         0.0000000000
lattice         0.0000000000        30.0000000000         0.0000000000
lattice         0.0000000000         0.0000000000        30.0000000000
atom        16.1405000000       14.8911000000       14.0936000000 H         0.0000000000         0.0000000000       -29.2765083084       23.3320052537       65.5422180797
atom        16.6006000000       15.3060000000       15.7657000000 H         0.0000000000         0.0000000000      -107.0474731287      -18.3589046147      -75.3290810325
atom        13.8189000000       15.2898000000       14.3515000000 H         0.0000000000         0.0000000000       101.2770463993       -7.7594827641       96.1743310527
atom        15.7874000000       15.1569000000       15.0013000000 C         0.0000000000         0.0000000000      -206.7280577409       31.3342707343       41.1846770917
atom        14.5252000000       15.3196000000       15.2273000000 N         0.0000000000         0.0000000000       241.7748697182      -28.5478286091     -127.5718451916
energy      -839.2533908484
charge 0
end
begin
comment generated by PY
lattice        30.0000000000         0.0000000000         0.0000000000
lattice         0.0000000000        30.0000000000         0.0000000000
lattice         0.0000000000         0.0000000000        30.0000000000
atom        16.1639000000       15.0026000000       13.9694000000 H         0.0000000000         0.0000000000       -44.2475060040       -1.2677983693      116.2072368159
atom        16.5600000000       15.5080000000       15.6276000000 H         0.0000000000         0.0000000000       -87.5980679436      -54.9204936974      -36.0900054482
atom        13.9189000000       15.2644000000       14.3675000000 H         0.0000000000         0.0000000000        67.9591517530       -6.9655190566       75.7579093213
atom        15.7909000000       15.1113000000       15.0248000000 C         0.0000000000         0.0000000000      -209.2792704317      119.7065404711      -53.8442581997
atom        14.5162000000       15.3381000000       15.2247000000 N         0.0000000000         0.0000000000       273.1657156868      -56.5526593478     -102.0308594286
energy      -835.1156777164
charge 0
end
begin
comment generated by PY
lattice        30.0000000000         0.0000000000         0.0000000000
lattice         0.0000000000        30.0000000000         0.0000000000
lattice         0.0000000000         0.0000000000        30.0000000000
atom        16.0252000000       14.5867000000       14.1147000000 H         0.0000000000         0.0000000000       -18.1148662195       79.2242991707       86.7729952264
atom        16.6240000000       15.1187000000       15.8008000000 H         0.0000000000         0.0000000000      -106.4416145065       30.0726272044      -86.9082821290
atom        13.9675000000       15.0162000000       14.2816000000 H         0.0000000000         0.0000000000        71.8458881730       43.2839926436      117.1110707003
atom        15.7838000000       15.1947000000       14.9925000000 C         0.0000000000         0.0000000000      -197.1447461208      -91.2651125652       45.2583355404
atom        14.5241000000       15.3418000000       15.2358000000 N         0.0000000000         0.0000000000       249.8560386738      -61.3158095141     -162.2338193380
energy      -819.3969967793
charge 0
end
begin
comment generated by PY
lattice        30.0000000000         0.0000000000         0.0000000000
lattice         0.0000000000        30.0000000000         0.0000000000
lattice         0.0000000000         0.0000000000        30.0000000000
atom        16.1153000000       14.7160000000       14.0639000000 H         0.0000000000         0.0000000000       -33.6759659215       51.5795897481       96.6936467511
atom        16.5583000000       15.2089000000       15.7307000000 H         0.0000000000         0.0000000000       -85.4873988559        9.7927654217      -63.6680848035
atom        13.9279000000       15.0478000000       14.3546000000 H         0.0000000000         0.0000000000        74.6835282868       37.0646268499       94.0019507987
atom        15.8013000000       15.1613000000       15.0005000000 C         0.0000000000         0.0000000000      -226.4616973582      -20.9227526845       10.5479354019
atom        14.5102000000       15.3525000000       15.2323000000 N         0.0000000000         0.0000000000       270.9417338487      -77.5141493352     -137.5757481482
energy      -835.2106776373
charge 0
end
begin
comment generated by PY
lattice        30.0000000000         0.0000000000         0.0000000000
lattice         0.0000000000        30.0000000000         0.0000000000
lattice         0.0000000000         0.0000000000        30.0000000000
atom        16.1175000000       15.0570000000       13.9836000000 H         0.0000000000         0.0000000000       -31.3177274472      -13.9656774766      109.0694725367
atom        16.5401000000       15.4873000000       15.6782000000 H         0.0000000000         0.0000000000       -86.0594914141      -54.0572928290      -52.8176434854
atom        13.8539000000       15.1973000000       14.3684000000 H         0.0000000000         0.0000000000        90.6489660250       10.5494813070       90.0308481554
atom        15.7950000000       15.1000000000       15.0164000000 C         0.0000000000         0.0000000000      -220.2585821399      139.0943552864      -30.2970136143
atom        14.5221000000       15.3502000000       15.2272000000 N         0.0000000000         0.0000000000       246.9866580368      -81.6208962878     -115.9848966529
energy      -831.9016441753
charge 0
end
begin
comment generated by PY
lattice        30.0000000000         0.0000000000         0.0000000000
lattice         0.0000000000        30.0000000000         0.0000000000
lattice         0.0000000000         0.0000000000        30.0000000000
atom        16.2267000000       14.8645000000       14.0322000000 H         0.0000000000         0.0000000000       -51.2698415684       37.5305948410       98.0964929909
atom        16.6248000000       15.2968000000       15.8516000000 H         0.0000000000         0.0000000000      -109.5506486050      -17.1002884727      -91.2542488787
atom        13.7614000000       15.3538000000       14.4346000000 H         0.0000000000         0.0000000000       106.1658091394      -18.7351748876       77.1209330900
atom        15.7847000000       15.1650000000       14.9955000000 C         0.0000000000         0.0000000000      -191.1750996882       11.5280042515       28.4083878609
atom        14.5237000000       15.3106000000       15.2245000000 N         0.0000000000         0.0000000000       245.8296807223      -13.2231887928     -112.3718350631
energy      -821.0504648193
charge 0
end
begin
comment generated by PY
lattice        30.0000000000         0.0000000000         0.0000000000
lattice         0.0000000000        30.0000000000         0.0000000000
lattice         0.0000000000         0.0000000000        30.0000000000
atom        16.1673000000       14.7532000000       14.0286000000 H         0.0000000000         0.0000000000       -37.5180020973       65.2959468135      101.0605544252
atom        16.4517000000       15.0738000000       15.8057000000 H         0.0000000000         0.0000000000       -67.4598723253       27.5527981580      -72.1638676592
atom        13.7926000000       15.2836000000       14.4580000000 H         0.0000000000         0.0000000000        94.1131580950       -3.2924011272       62.5721633023
atom        15.8000000000       15.2042000000       14.9977000000 C         0.0000000000         0.0000000000      -242.4624662667      -81.4019383140        5.8076326667
atom        14.5249000000       15.3059000000       15.2245000000 N         0.0000000000         0.0000000000       253.3274825943       -8.1543755303      -97.2760827351
energy      -837.5623076682
charge 0
end
begin
comment generated by PY
lattice        30.0000000000         0.0000000000         0.0000000000
lattice         0.0000000000        30.0000000000         0.0000000000
lattice         0.0000000000         0.0000000000        30.0000000000
atom        16.1526000000       15.0510000000       14.0450000000 H         0.0000000000         0.0000000000       -31.4615482458       -2.2460635888       82.9954476743
atom        16.5384000000       15.4065000000       15.7823000000 H         0.0000000000         0.0000000000       -93.0357317653      -43.3917553536      -78.5800768777
atom        13.8423000000       15.2962000000       14.3107000000 H         0.0000000000         0.0000000000        97.2264502947       -6.2137989150      105.0430560871
atom        15.7911000000       15.1295000000       15.0047000000 C         0.0000000000         0.0000000000      -212.6147820725       99.7557397566       30.7877233977
atom        14.5239000000       15.3240000000       15.2295000000 N         0.0000000000         0.0000000000       239.8858887284      -47.9041318992     -140.2461433420
energy      -833.7889387967
charge 0
end
begin
comment generated by PY
lattice        30.0000000000         0.0000000000         0.0000000000
lattice         0.0000000000        30.0000000000         0.0000000000
lattice         0.0000000000         0.0000000000        30.0000000000
atom        16.2029000000       14.9509000000       13.9317000000 H         0.0000000000         0.0000000000       -51.2417445237        9.4248006700      123.6843498204
atom        16.5706000000       15.4860000000       15.6655000000 H         0.0000000000         0.0000000000       -94.2776351267      -51.5825099052      -49.1900117830
atom        13.9435000000       15.2394000000       14.3696000000 H         0.0000000000         0.0000000000        59.1438195781       -3.1849421320       71.3822766331
atom        15.7856000000       15.1192000000       15.0228000000 C         0.0000000000         0.0000000000      -195.3013444346      103.2812996972      -41.5822802003
atom        14.5155000000       15.3384000000       15.2262000000 N         0.0000000000         0.0000000000       281.6767045069      -57.9385483299     -104.2945344702
energy      -830.6034964874
charge 0
end
begin
comment generated by PY
lattice        30.0000000000         0.0000000000         0.0000000000
lattice         0.0000000000        30.0000000000         0.0000000000
lattice         0.0000000000         0.0000000000        30.0000000000
atom        16.1371000000       14.6668000000       14.0989000000 H         0.0000000000         0.0000000000       -38.3116881647       68.9122315483       85.0762296647
atom        16.5373000000       15.0888000000       15.8230000000 H         0.0000000000         0.0000000000       -90.6132930408       32.5330969837      -89.1693226127
atom        13.9433000000       15.0798000000       14.3003000000 H         0.0000000000         0.0000000000        73.5393423681       33.7252968622      109.1670576562
atom        15.7941000000       15.1929000000       14.9862000000 C         0.0000000000         0.0000000000      -205.3415999381      -78.1129637539       61.3977069200
atom        14.5153000000       15.3352000000       15.2394000000 N         0.0000000000         0.0000000000       260.7273157150      -57.0576516404     -166.4719946888
energy      -824.5447493206
charge 0
end
begin
comment generated by PY
lattice        30.0000000000         0.0000000000         0.0000000000
lattice         0.0000000000        30.0000000000         0.0000000000
lattice         0.0000000000         0.0000000000        30.0000000000
atom        16.1842000000       15.0299000000       14.0328000000 H         0.0000000000         0.0000000000       -45.6769517334       -3.2640752948       87.8566025344
atom        16.5564000000       15.4355000000       15.6990000000 H         0.0000000000         0.0000000000       -91.9558157309      -45.3717969381      -59.5622729861
atom        13.9904000000       15.2135000000       14.3156000000 H         0.0000000000         0.0000000000        55.6303348000        6.4738279888       93.1070149619
atom        15.7936000000       15.1221000000       14.9989000000 C         0.0000000000         0.0000000000      -199.7315504233      110.7599747882       25.5080800451
atom        14.5076000000       15.3357000000       15.2409000000 N         0.0000000000         0.0000000000       281.7332830876      -68.5978705441     -146.9093075553
energy      -838.2230973376
charge 0
end
begin
comment generated by PY
lattice        30.0000000000         0.0000000000         0.0000000000
lattice         0.0000000000        30.0000000000         0.0000000000
lattice         0.0000000000         0.0000000000        30.0000000000
atom        16.1607000000       14.7909000000       14.0169000000 H         0.0000000000         0.0000000000       -40.4338188268       52.1422420473      105.7045720474
atom        16.5059000000       15.2108000000       15.7483000000 H         0.0000000000         0.0000000000       -72.7890892556        4.4399860095      -60.6641517841
atom        13.8987000000       15.2169000000       14.3162000000 H         0.0000000000         0.0000000000        82.5787672798        6.4202115702      104.5406036141
atom        15.7994000000       15.1806000000       14.9966000000 C         0.0000000000         0.0000000000      -230.8742774478      -29.6792209422        2.8556641497
atom        14.5144000000       15.3184000000       15.2405000000 N         0.0000000000         0.0000000000       261.5183182504      -33.3232286849     -152.4360880272
energy      -835.0859794109
charge 0
end
begin
comment generated by PY
lattice        30.0000000000         0.0000000000         0.0000000000
lattice         0.0000000000        30.0000000000         0.0000000000
lattice         0.0000000000         0.0000000000        30.0000000000
atom        16.1723000000       14.9347000000       14.0374000000 H         0.0000000000         0.0000000000       -35.9023056160       10.5005592613       91.3959467970
atom        16.5865000000       15.3668000000       15.8142000000 H         0.0000000000         0.0000000000      -101.3073552554      -28.8223194450      -90.6320117002
atom        13.8212000000       15.1396000000       14.4397000000 H         0.0000000000         0.0000000000        87.4529381046       18.3858398122       66.5390005871
atom        15.8040000000       15.1321000000       14.9992000000 C         0.0000000000         0.0000000000      -219.3712386638       74.2277850767       35.0920099013
atom        14.5095000000       15.3441000000       15.2233000000 N         0.0000000000         0.0000000000       269.1282844912      -74.2918647051     -102.3945225247
energy      -827.2882930960
charge 0
end
begin
comment generated by PY
lattice        30.0000000000         0.0000000000         0.0000000000
lattice         0.0000000000        30.0000000000         0.0000000000
lattice         0.0000000000         0.0000000000        30.0000000000
atom        16.2184000000       14.8906000000       13.9749000000 H         0.0000000000         0.0000000000       -46.3687614159       25.7590185085      116.8357016803
atom        16.5366000000       15.3143000000       15.8529000000 H         0.0000000000         0.0000000000       -91.7337243784      -18.1744726254      -97.3725199504
atom        13.7385000000       15.1596000000       14.4356000000 H         0.0000000000         0.0000000000       113.3105978697       18.3503852201       79.9447925029
atom        15.8012000000       15.1476000000       15.0004000000 C         0.0000000000         0.0000000000      -217.5723695289       39.6594714840       15.4608599740
atom        14.5181000000       15.3362000000       15.2243000000 N         0.0000000000         0.0000000000       242.3640805142      -65.5944025872     -114.8689342068
energy      -816.2111289404
charge 0
end
begin
comment generated by PY
lattice        30.0000000000         0.0000000000         0.0000000000
lattice         0.0000000000        30.0000000000         0.0000000000
lattice         0.0000000000         0.0000000000        30.0000000000
atom        16.1442000000       14.7820000000       14.0075000000 H         0.0000000000         0.0000000000       -31.5752097255       57.8025751273      109.3287341526
atom        16.4076000000       15.1173000000       15.8535000000 H         0.0000000000         0.0000000000       -58.1673003118       20.4506279543      -87.3036841893
atom        13.8441000000       15.2151000000       14.4359000000 H         0.0000000000         0.0000000000        81.8547953167        7.2128946919       62.7239606735
atom        15.7979000000       15.1990000000       14.9969000000 C         0.0000000000         0.0000000000      -247.7626781909      -62.4552027853       18.9608381666
atom        14.5279000000       15.3100000000       15.2249000000 N         0.0000000000         0.0000000000       255.6505929115      -23.0109219277     -103.7104718640
energy      -842.4656038331
charge 0
end
begin
comment generated by PY
lattice        30.0000000000         0.0000000000         0.0000000000
lattice         0.0000000000        30.0000000000         0.0000000000
lattice         0.0000000000         0.0000000000        30.0000000000
atom        16.1479000000       15.0319000000       14.0622000000 H         0.0000000000         0.0000000000       -23.1493427458       -7.0584330465       65.5837736424
atom        16.4675000000       15.5568000000       15.7777000000 H         0.0000000000         0.0000000000       -75.0381852911      -70.9409853397      -82.2898753102
atom        13.8464000000       15.2818000000       14.3053000000 H         0.0000000000         0.0000000000        92.3646142443       -6.5700580623      107.0457416761
atom        15.8062000000       15.1064000000       14.9958000000 C         0.0000000000         0.0000000000      -239.2221041670      144.0265846592       64.6645790568
atom        14.5160000000       15.3354000000       15.2367000000 N         0.0000000000         0.0000000000       245.0451410201      -59.4570582106     -155.0051190651
energy      -822.6875504876
charge 0
end
begin
comment generated by PY
lattice        30.0000000000         0.0000000000         0.0000000000
lattice         0.0000000000        30.0000000000         0.0000000000
lattice         0.0000000000         0.0000000000        30.0000000000
atom        16.1365000000       14.6723000000       14.0516000000 H         0.0000000000         0.0000000000       -33.8649085707       68.8794262571      101.8085726719
atom        16.4417000000       15.2241000000       15.8163000000 H         0.0000000000         0.0000000000       -61.8624939793        3.4368188945      -81.4726333739
atom        13.9469000000       15.1854000000       14.3524000000 H         0.0000000000         0.0000000000        63.6200165976        8.4712317209       85.0761159604
atom        15.7994000000       15.1804000000       14.9906000000 C         0.0000000000         0.0000000000      -240.0974326613      -45.4281794582       36.9204993261
atom        14.5173000000       15.3283000000       15.2358000000 N         0.0000000000         0.0000000000       272.2045955531      -35.3592443538     -142.3330545845
energy      -839.7341358044
charge 0
end
begin
comment generated by PY
lattice        30.0000000000         0.0000000000         0.0000000000
lattice         0.0000000000        30.0000000000         0.0000000000
lattice         0.0000000000         0.0000000000        30.0000000000
atom        16.1777000000       14.8570000000       13.9761000000 H         0.0000000000         0.0000000000       -43.9397457415       35.1324181297      115.0343542190
atom        16.5463000000       15.2068000000       15.8434000000 H         0.0000000000         0.0000000000       -92.1300769068        1.9681873668      -98.1400863163
atom        13.9317000000       15.0980000000       14.2962000000 H         0.0000000000         0.0000000000        75.3186751671       33.5118768462      111.4096758188
atom        15.7948000000       15.1611000000       14.9892000000 C         0.0000000000         0.0000000000      -202.7055515937        6.4067600714       41.7367490413
atom        14.5119000000       15.3392000000       15.2444000000 N         0.0000000000         0.0000000000       263.4567990749      -77.0192724141     -170.0407927628
energy      -818.2221331872
charge 0
end
begin
comment generated by PY
lattice        30.0000000000         0.0000000000         0.0000000000
lattice         0.0000000000        30.0000000000         0.0000000000
lattice         0.0000000000         0.0000000000        30.0000000000
atom        16.1213000000       15.1198000000       13.9925000000 H         0.0000000000         0.0000000000       -30.7887079579      -17.7350468030       99.8020247638
atom        16.5801000000       15.4356000000       15.7647000000 H         0.0000000000         0.0000000000       -97.9480646801      -50.0125284026      -79.9534574252
atom        13.9993000000       15.1881000000       14.3090000000 H         0.0000000000         0.0000000000        55.1846191141       14.9064707554       94.0942898309
atom        15.7977000000       15.1100000000       15.0001000000 C         0.0000000000         0.0000000000      -205.7141208124      136.7828984179       28.6011770672
atom        14.5063000000       15.3414000000       15.2386000000 N         0.0000000000         0.0000000000       279.2661743362      -83.9417589677     -142.5435342366
energy      -825.8583794984
charge 0
end
begin
comment generated by PY
lattice        30.0000000000         0.0000000000         0.0000000000
lattice         0.0000000000        30.0000000000         0.0000000000
lattice         0.0000000000         0.0000000000        30.0000000000
atom        16.1444000000       14.6511000000       14.0668000000 H         0.0000000000         0.0000000000       -31.1431548074       76.9227814642       96.3547999279
atom        16.4598000000       15.1611000000       15.7585000000 H         0.0000000000         0.0000000000       -52.3734362424       14.2005381622      -46.0089612596
atom        13.7545000000       15.2950000000       14.4084000000 H         0.0000000000         0.0000000000       110.0871231188       -9.3908820189       83.5112031500
atom        15.8190000000       15.1939000000       14.9982000000 C         0.0000000000         0.0000000000      -275.7304815354      -76.8426635973      -17.4599761698
atom        14.5124000000       15.3149000000       15.2282000000 N         0.0000000000         0.0000000000       249.1597264059       -4.8897310102     -116.3968887090
energy      -823.6301328265
charge 0
end
begin
comment generated by PY
lattice        30.0000000000         0.0000000000         0.0000000000
lattice         0.0000000000        30.0000000000         0.0000000000
lattice         0.0000000000         0.0000000000        30.0000000000
atom        16.1154000000       14.8056000000       14.0691000000 H         0.0000000000         0.0000000000       -24.3216542528       33.5211705268       88.9209879490
atom        16.5583000000       15.3382000000       15.8031000000 H         0.0000000000         0.0000000000       -96.3593953803      -20.8813063658      -86.1001350781
atom        13.7706000000       15.2125000000       14.4708000000 H         0.0000000000         0.0000000000       100.6548609193        3.2381689896       62.7399099659
atom        15.7939000000       15.1487000000       15.0072000000 C         0.0000000000         0.0000000000      -228.8691902176       27.4448301020       19.3107098845
atom        14.5278000000       15.3359000000       15.2128000000 N         0.0000000000         0.0000000000       248.8954789314      -43.3228363131      -84.8712317213
energy      -841.1111992573
charge 0
end
begin
comment generated by PY
lattice        30.0000000000         0.0000000000         0.0000000000
lattice         0.0000000000        30.0000000000         0.0000000000
lattice         0.0000000000         0.0000000000        30.0000000000
atom        16.1349000000       14.9469000000       13.9621000000 H         0.0000000000         0.0000000000       -33.3611842062       -1.7163785276      123.9066125039
atom        16.5810000000       15.4803000000       15.7004000000 H         0.0000000000         0.0000000000       -97.7769524859      -46.2061047858      -60.0249870125
atom        13.7827000000       15.0540000000       14.4540000000 H         0.0000000000         0.0000000000       104.7301892384       34.2583069843       72.1973591816
atom        15.7954000000       15.1003000000       15.0364000000 C         0.0000000000         0.0000000000      -214.9969677489      118.7153310726      -56.9188226242
atom        14.5226000000       15.3685000000       15.2039000000 N         0.0000000000         0.0000000000       241.4052152025     -105.0512778041      -79.1597189882
energy      -821.5246433697
charge 0
end
begin
comment generated by PY
lattice        30.0000000000         0.0000000000         0.0000000000
lattice         0.0000000000        30.0000000000         0.0000000000
lattice         0.0000000000         0.0000000000        30.0000000000
atom        16.0127000000       14.5852000000       14.1368000000 H         0.0000000000         0.0000000000        -9.3745011371       70.3566538256       84.1486732137
atom        16.5000000000       15.1376000000       15.8198000000 H         0.0000000000         0.0000000000       -77.2743338799       28.5771973109      -87.5280366629
atom        13.8758000000       14.9537000000       14.4320000000 H         0.0000000000         0.0000000000        87.2802959115       52.1248774141       77.4789947601
atom        15.7989000000       15.1822000000       14.9983000000 C         0.0000000000         0.0000000000      -246.1137035108      -74.8947074803       36.9972952894
atom        14.5275000000       15.3557000000       15.2171000000 N         0.0000000000         0.0000000000       245.4821195558      -76.1639380097     -111.0965266003
energy      -836.4804231804
charge 0
end
begin
comment generated by PY
lattice        30.0000000000         0.0000000000         0.0000000000
lattice         0.0000000000        30.0000000000         0.0000000000
lattice         0.0000000000         0.0000000000        30.0000000000