begin
comment generated by PY
lattice        30.0000000000         0.0000000000         0.0000000000
lattice         0.0000000000        30.0000000000         0.0000000000
lattice         0.0000000000         0.0000000000        30.0000000000
atom        17.3054000000       14.6696000000       14.6038000000 H         0.0000000000         0.0000000000      -123.3687065327       31.2167423458      -35.0346670658
atom        13.2911000000       15.6750000000       15.7811000000 H         0.0000000000         0.0000000000        28.5242703098       -6.6382825261     -121.8582297452
atom        12.4600000000       15.8912000000       14.2461000000 H         0.0000000000         0.0000000000       122.4952970365      -31.0482208113       44.0009688583
atom        16.5703000000       17.1323000000       14.2390000000 H         0.0000000000         0.0000000000       -85.1688474069      -93.7157791538       38.8736442666
atom        16.0061000000       16.4638000000       15.7583000000 H         0.0000000000         0.0000000000       -22.7399606626      -13.9005120375     -121.1937827901
atom        15.3090000000       13.6948000000       15.7458000000 H         0.0000000000         0.0000000000       -13.1972036306       24.0468481056     -121.0476022074
atom        15.4926000000       12.8518000000       14.2196000000 H         0.0000000000         0.0000000000       -30.7189920359      122.5304226573       39.8441581948
atom        13.4583000000       15.6379000000       14.6759000000 C         0.0000000000         0.0000000000        96.4847269970      -24.0641520804      -49.4734273567
atom        15.8684000000       16.3758000000       14.6555000000 C         0.0000000000         0.0000000000       -79.6591162037      -45.6829572006      -25.8667776303
atom        15.2317000000       13.8469000000       14.6440000000 C         0.0000000000         0.0000000000       -48.4819355225       78.1994304909      -25.2711695022
atom        14.4658000000       16.7232000000       14.3200000000 N         0.0000000000         0.0000000000        72.7356960972     -197.7839699430      120.7414358397
atom        13.8326000000       14.2080000000       14.3086000000 N         0.0000000000         0.0000000000       157.4595999761      138.7185430971      122.2721139075
atom        16.3090000000       14.9222000000       14.2256000000 N         0.0000000000         0.0000000000       -74.3644084218       18.1220039954      134.0121452308
energy     -2259.8749955040
charge 0
end
begin
comment generated by PY
lattice        30.0000000000         0.0000000000         0.0000000000
lattice         0.0000000000        30.0000000000         0.0000000000
lattice         0.0000000000         0.0000000000        30.0000000000
atom        17.2036000000       14.3928000000       14.4970000000 H         0.0000000000         0.0000000000       -93.8201884098       91.1332496993      -15.5188070612
atom        13.4811000000       15.5105000000       15.7264000000 H         0.0000000000         0.0000000000         8.9459983839       15.6184280944     -119.7853131274
atom        12.4969000000       15.9559000000       14.4232000000 H         0.0000000000         0.0000000000       103.9217345727      -40.2974709631        7.1177501354
atom        16.5265000000       17.2003000000       14.2418000000 H         0.0000000000         0.0000000000       -84.9520737730     -106.7816455871       37.5196548471
atom        15.9060000000       16.3597000000       15.7630000000 H         0.0000000000         0.0000000000       -13.4906276804        7.4600397292     -132.7738005626
atom        15.2649000000       13.6780000000       15.7668000000 H         0.0000000000         0.0000000000        -3.3809904233       21.0055126755     -112.4008432892
atom        15.6111000000       12.9041000000       14.2549000000 H         0.0000000000         0.0000000000       -48.5586472932      102.4138835597       41.2841438228
atom        13.4792000000       15.6516000000       14.6324000000 C         0.0000000000         0.0000000000       137.2905256033      -19.4736860930        1.6787833154
atom        15.8137000000       16.3790000000       14.6047000000 C         0.0000000000         0.0000000000       -64.5159461420      -28.3453521290       23.9459324766
atom        15.2427000000       13.8113000000       14.7015000000 C         0.0000000000         0.0000000000       -52.1120951406      119.9086012574      -64.8446586723
atom        14.4503000000       16.7778000000       14.3494000000 N         0.0000000000         0.0000000000        78.8734107902     -241.1339920872      101.2141168964
atom        13.8737000000       14.1880000000       14.2807000000 N         0.0000000000         0.0000000000       134.9113924769      122.8412768732      127.3989430332
atom        16.2989000000       14.9305000000       14.2501000000 N         0.0000000000         0.0000000000      -103.1122468436      -44.3486650294      105.1642512463
energy     -2265.6908679643
charge 0
end
begin
comment generated by PY
lattice        30.0000000000         0.0000000000         0.0000000000
lattice         0.0000000000        30.0000000000         0.0000000000
lattice         0.0000000000         0.0000000000        30.0000000000
atom        17.3968000000       14.7339000000       14.5098000000 H         0.0000000000         0.0000000000      -139.2860588613       20.7870217191      -27.0120781739
atom        13.2970000000       15.8192000000       15.6723000000 H         0.0000000000         0.0000000000        27.3114033296      -25.6034579670     -109.3346875625
atom        12.3846000000       15.7794000000       14.2429000000 H         0.0000000000         0.0000000000       130.4646686954      -14.6478604734       31.1469313711
atom        16.5023000000       17.0884000000       14.3294000000 H         0.0000000000         0.0000000000       -76.2326556108      -84.1584932715       37.6295075869
atom        15.8568000000       16.4281000000       15.8006000000 H         0.0000000000         0.0000000000        -5.1688460266      -17.2655729946     -119.4639781362
atom        15.4761000000       13.6373000000       15.7452000000 H         0.0000000000         0.0000000000       -34.9137677482       34.0175620713     -122.0310217572
atom        15.4602000000       12.8994000000       14.1096000000 H         0.0000000000         0.0000000000       -23.6101393982      120.8563359358       61.6321261901
atom        13.4284000000       15.6142000000       14.6108000000 C         0.0000000000         0.0000000000       115.0184710862      -46.1989946452      -31.2028697003
atom        15.8279000000       16.3412000000       14.7096000000 C         0.0000000000         0.0000000000       -79.8291505644      -24.3678844017      -57.5275627058
atom        15.2583000000       13.8810000000       14.6594000000 C         0.0000000000         0.0000000000       -29.5426541032       42.2530486625      -55.6176482308
atom        14.4660000000       16.7290000000       14.3151000000 N         0.0000000000         0.0000000000        58.2333395267     -198.6753853646      122.6895940513
atom        13.8440000000       14.2174000000       14.3670000000 N         0.0000000000         0.0000000000       142.2402880411      162.8548751593      115.6773745841
atom        16.3394000000       14.9271000000       14.1815000000 N         0.0000000000         0.0000000000       -84.6855383663       30.1490286304      153.4140124833
energy     -2265.0400393287
charge 0
end
begin
comment generated by PY
lattice        30.0000000000         0.0000000000         0.0000000000
lattice         0.0000000000        30.0000000000         0.0000000000
lattice         0.0000000000         0.0000000000        30.0000000000
atom        17.4053000000       14.9533000000       14.7115000000 H         0.0000000000         0.0000000000      -122.8916071519      -17.7887061313      -33.5284378242
atom        13.2365000000       15.5551000000       15.8453000000 H         0.0000000000         0.0000000000        34.5966282763        4.6092976091     -129.5506133789
atom        12.3192000000       15.8908000000       14.3532000000 H         0.0000000000         0.0000000000       139.7194623387      -36.5767379541       26.6345355011
atom        16.3612000000       17.0691000000       13.8864000000 H         0.0000000000         0.0000000000       -54.4601459248      -84.1765338435       76.7251162840
atom        16.2189000000       16.8518000000       15.6067000000 H         0.0000000000         0.0000000000       -47.4318322195      -63.1487530200     -108.2742336922
atom        15.2809000000       13.6888000000       15.6771000000 H         0.0000000000         0.0000000000       -11.3988868393       26.8523529162     -107.5367694554
atom        15.4432000000       12.9166000000       14.2173000000 H         0.0000000000         0.0000000000       -18.8602601467      101.9513287860       26.8612602165
atom        13.4150000000       15.5972000000       14.6854000000 C         0.0000000000         0.0000000000        99.0254205356      -34.7155976606      -31.0046186652
atom        15.8633000000       16.3774000000       14.6043000000 C         0.0000000000         0.0000000000       -77.2143637190      -19.8183688861      -65.3548591980
atom        15.2173000000       13.8518000000       14.6201000000 C         0.0000000000         0.0000000000       -65.1130405343       72.6345401032       -0.1907883420
atom        14.4500000000       16.6717000000       14.3556000000 N         0.0000000000         0.0000000000        68.6600609927     -180.5677247771      112.5634271696
atom        13.8250000000       14.2156000000       14.2611000000 N         0.0000000000         0.0000000000       152.7623669506      137.6205507595      132.0035012948
atom        16.3984000000       14.9563000000       14.3150000000 N         0.0000000000         0.0000000000       -97.3941494978       93.1236743410      100.6520139688
energy     -2244.3242563476
charge 0
end
begin
comment generated by PY
lattice        30.0000000000         0.0000000000         0.0000000000
lattice         0.0000000000        30.0000000000         0.0000000000
lattice         0.0000000000         0.0000000000        30.0000000000
atom        17.2354000000       14.6369000000       14.5689000000 H         0.0000000000         0.0000000000       -97.5053116773       49.2682551976      -34.5563315352
atom        12.9425000000       15.7086000000       15.5741000000 H         0.0000000000         0.0000000000        66.6564465047      -14.5389211428     -108.5531594497
atom        12.4682000000       15.9065000000       13.9895000000 H         0.0000000000         0.0000000000       117.0450543699      -45.0863389649       51.8802642488
atom        16.5714000000       17.2114000000       14.2867000000 H         0.0000000000         0.0000000000       -88.9556155975      -97.8917765220       26.1671322146
atom        16.1371000000       16.6228000000       15.8012000000 H         0.0000000000         0.0000000000       -42.7598495861      -35.5706623034     -122.0233805334
atom        15.3737000000       13.7151000000       15.7929000000 H         0.0000000000         0.0000000000       -12.9513625128       20.5347686065     -132.1030630318
atom        15.5203000000       12.7569000000       14.2531000000 H         0.0000000000         0.0000000000       -30.3744103695      137.9501161162       32.6516912418
atom        13.4001000000       15.6021000000       14.5504000000 C         0.0000000000         0.0000000000       138.8463382301      -17.3104474193       -1.9675405133
atom        15.8728000000       16.4140000000       14.6745000000 C         0.0000000000         0.0000000000       -73.3600694584      -45.9213876571      -23.8028153579
atom        15.2612000000       13.8382000000       14.6292000000 C         0.0000000000         0.0000000000       -89.9349579264       80.3055276417       16.3666139454
atom        14.4600000000       16.6927000000       14.3862000000 N         0.0000000000         0.0000000000        54.4785757680     -167.1255295953       90.9300519142
atom        13.8621000000       14.1553000000       14.4277000000 N         0.0000000000         0.0000000000       130.6541128262      139.6134373707       58.0910890530
atom        16.3195000000       14.9979000000       14.1677000000 N         0.0000000000         0.0000000000       -71.8392275106       -4.2272974490      146.9194678036
energy     -2230.0531478393
charge 0
end
begin
comment generated by PY
lattice        30.0000000000         0.0000000000         0.0000000000
lattice         0.0000000000        30.0000000000         0.0000000000
lattice         0.0000000000         0.0000000000        30.0000000000
atom        17.4117000000       14.5946000000       14.5626000000 H         0.0000000000         0.0000000000      -147.3010014144       55.8365270730      -20.4842560924
atom        13.3286000000       15.5770000000       15.7707000000 H         0.0000000000         0.0000000000        32.0877159633       -1.7687931914     -114.0062681594
atom        12.4497000000       15.7427000000       14.3083000000 H         0.0000000000         0.0000000000       130.3798516544       -9.8800641914       38.9320195720
atom        16.5583000000       17.1431000000       14.1463000000 H         0.0000000000         0.0000000000       -95.4609566107      -87.7559533634       41.5691961876
atom        16.0348000000       16.5466000000       15.6829000000 H         0.0000000000         0.0000000000       -35.1388619994      -15.6385599517     -118.7808411853
atom        15.3218000000       13.5119000000       15.6664000000 H         0.0000000000         0.0000000000       -10.8514989889       46.1509142952      -99.4090787079
atom        15.4990000000       13.0478000000       14.0464000000 H         0.0000000000         0.0000000000       -19.8322845758       85.7029691668       65.1447014039
atom        13.5024000000       15.5897000000       14.6937000000 C         0.0000000000         0.0000000000        39.4657667701      -20.5418578172      -72.6580061149
atom        15.8126000000       16.4207000000       14.5924000000 C         0.0000000000         0.0000000000       -42.4368649672      -37.3325754253        4.7517978455
atom        15.2547000000       13.8705000000       14.6673000000 C         0.0000000000         0.0000000000       -41.1117777640       57.0182961268      -99.5957805150
atom        14.4013000000       16.7593000000       14.3280000000 N         0.0000000000         0.0000000000       103.9034596617     -226.8889111299      115.2562748725
atom        13.8574000000       14.1519000000       14.2610000000 N         0.0000000000         0.0000000000       171.9332346567      162.6107390863      161.0184341375
atom        16.3270000000       14.9401000000       14.3134000000 N         0.0000000000         0.0000000000       -85.6364623859       -7.5135877989       98.2623904561
energy     -2256.8082336410
charge 0
end
begin
comment generated by PY
lattice        30.0000000000         0.0000000000         0.0000000000
lattice         0.0000000000        30.0000000000         0.0000000000
lattice         0.0000000000         0.0000000000        30.0000000000
atom        17.3962000000       14.6813000000       14.6347000000 H         0.0000000000         0.0000000000      -137.3651173325       39.1894126383      -35.1990901975
atom        13.3693000000       15.6359000000       15.7534000000 H         0.0000000000         0.0000000000         8.0100982349       -4.2809528545     -119.6819124765
atom        12.4298000000       15.9374000000       14.2190000000 H         0.0000000000         0.0000000000       120.3619803768      -52.4179966682       49.5905241089
atom        16.5204000000       17.1707000000       14.1685000000 H         0.0000000000         0.0000000000       -89.5476342213      -96.5797597762       45.0080208362
atom        15.8276000000       16.4183000000       15.6951000000 H         0.0000000000         0.0000000000        -0.8080851219        0.2463168629     -125.6058900386
atom        15.3270000000       13.5296000000       15.7306000000 H         0.0000000000         0.0000000000        -5.9555810091       45.2744754967     -116.7093416808
atom        15.5788000000       12.8400000000       14.1842000000 H         0.0000000000         0.0000000000       -38.2616558339      122.3517748841       40.5050378672
atom        13.4165000000       15.5936000000       14.6589000000 C         0.0000000000         0.0000000000       140.6083230769      -11.8505783036      -42.4425783369
atom        15.7987000000       16.3945000000       14.5738000000 C         0.0000000000         0.0000000000       -80.1130279923      -35.3556478637       26.6152410758
atom        15.2874000000       13.8197000000       14.6507000000 C         0.0000000000         0.0000000000       -51.3616084146       82.2361653900      -28.7357097681
atom        14.4023000000       16.7645000000       14.3647000000 N         0.0000000000         0.0000000000        97.3607743377     -210.4130000261       82.2670394183
atom        13.8974000000       14.2206000000       14.3142000000 N         0.0000000000         0.0000000000       118.9873020241      123.7700797473      115.8040640732
atom        16.3546000000       14.9254000000       14.2692000000 N         0.0000000000         0.0000000000       -81.9157050644       -2.1706095271      108.5842851189
energy     -2244.2154790264
charge 0
end
begin
comment generated by PY
lattice        30.0000000000         0.0000000000         0.0000000000
lattice         0.0000000000        30.0000000000         0.0000000000
lattice         0.0000000000         0.0000000000        30.0000000000
atom        17.3069000000       14.6920000000       14.5425000000 H         0.0000000000         0.0000000000      -112.3519682354       43.3065251545      -36.7651026831
atom        13.1047000000       15.6674000000       15.7009000000 H         0.0000000000         0.0000000000        45.1638252585       -9.7047263567     -107.8882825864
atom        12.4521000000       15.8266000000       14.0897000000 H         0.0000000000         0.0000000000       118.6750847090      -34.4157001775       62.8411168659
atom        16.5550000000       17.1901000000       14.3981000000 H         0.0000000000         0.0000000000       -89.8673108664      -99.6548587236       26.4722053338
atom        16.0561000000       16.4642000000       15.8535000000 H         0.0000000000         0.0000000000       -42.0188847718      -21.5139845625     -118.8940375099
atom        15.3239000000       13.8024000000       15.7393000000 H         0.0000000000         0.0000000000         1.3056350868        8.0458895518     -115.0423572596
atom        15.5594000000       12.8273000000       14.2364000000 H         0.0000000000         0.0000000000       -29.7615330485      127.1424696519       42.8274206369
atom        13.4210000000       15.5850000000       14.6573000000 C         0.0000000000         0.0000000000        86.8979849048      -22.9278342593      -74.3362795429
atom        15.8407000000       16.3786000000       14.7519000000 C         0.0000000000         0.0000000000       -28.5876380641      -23.2195263940      -63.5940002266
atom        15.3110000000       13.8420000000       14.6558000000 C         0.0000000000         0.0000000000       -79.7794953012       89.4722635619      -29.6844522652
atom        14.4138000000       16.7000000000       14.2791000000 N         0.0000000000         0.0000000000        68.4954247198     -193.3564444862      145.2777241845
atom        13.8465000000       14.1933000000       14.3574000000 N         0.0000000000         0.0000000000       137.7375228556      146.9791450497       97.3399736118
atom        16.3403000000       15.0008000000       14.1433000000 N         0.0000000000         0.0000000000       -75.9091103075      -10.1534780101      171.4456014406
energy     -2219.7219492408
charge 0
end
begin
comment generated by PY
lattice        30.0000000000         0.0000000000         0.0000000000
lattice         0.0000000000        30.0000000000         0.0000000000
lattice         0.0000000000         0.0000000000        30.0000000000
atom        17.4174000000       14.9559000000       14.4830000000 H         0.0000000000         0.0000000000      -137.0646285571      -10.8856811735      -11.7915205361
atom        13.5219000000       15.5301000000       15.8347000000 H         0.0000000000         0.0000000000         3.7448315907       -4.1712390706     -131.6889762319
atom        12.4137000000       15.7557000000       14.4528000000 H         0.0000000000         0.0000000000       134.4873440672      -22.9233060294       17.9305910873
atom        16.5364000000       17.2286000000       14.2291000000 H         0.0000000000         0.0000000000       -82.6679693008      -86.8872865328       37.2967436074
atom        16.0523000000       16.5097000000       15.7840000000 H         0.0000000000         0.0000000000       -31.7204311543       -0.8003384610     -127.6322785877
atom        15.3029000000       13.8086000000       15.6923000000 H         0.0000000000         0.0000000000       -18.3366791737       19.8498888535     -107.3672489605
atom        15.4489000000       12.8578000000       14.3381000000 H         0.0000000000         0.0000000000       -14.3675321569      130.0934937245       17.3144298691
atom        13.4896000000       15.5170000000       14.6851000000 C         0.0000000000         0.0000000000        72.4615610546      -27.9664043264      -22.5644477212
atom        15.8585000000       16.4883000000       14.6561000000 C         0.0000000000         0.0000000000       -94.1828226926     -105.8930577377      -16.0767309495
atom        15.2154000000       13.9003000000       14.6313000000 C         0.0000000000         0.0000000000       -54.4131582134       21.2859005169       -7.6148223427
atom        14.4426000000       16.6551000000       14.3046000000 N         0.0000000000         0.0000000000        91.8026482939     -160.6065210562      122.6744444930
atom        13.8037000000       14.1272000000       14.2646000000 N         0.0000000000         0.0000000000       190.4693206833      187.6298067878      145.8743963774
atom        16.3382000000       15.0133000000       14.2717000000 N         0.0000000000         0.0000000000       -60.2126533801       61.2759545046       83.6450429558
energy     -2247.9962134646
charge 0
end
begin
comment generated by PY
lattice        30.0000000000         0.0000000000         0.0000000000
lattice         0.0000000000        30.0000000000         0.0000000000
lattice         0.0000000000         0.0000000000        30.0000000000
atom        17.3641000000       14.6807000000       14.4203000000 H         0.0000000000         0.0000000000      -129.6689986222       42.6342694029      -15.6386052856
atom        13.2578000000       15.6772000000       15.7384000000 H         0.0000000000         0.0000000000        30.7499582097      -13.7518317409     -125.7658399645
atom        12.3896000000       15.7792000000       14.1792000000 H         0.0000000000         0.0000000000       133.0520462442      -24.4809316079       46.2624193403
atom        16.4066000000       17.2607000000       14.3124000000 H         0.0000000000         0.0000000000       -65.5154821312     -102.6061307151       46.1513690185
atom        15.8557000000       16.4151000000       15.8877000000 H         0.0000000000         0.0000000000        -7.4686831795       -0.2127385640     -137.8148884600
atom        15.5414000000       13.5912000000       15.7084000000 H         0.0000000000         0.0000000000       -36.1111101318       42.4540477305     -116.2357549720
atom        15.6804000000       12.9724000000       14.0891000000 H         0.0000000000         0.0000000000       -51.6558530063      109.6314635486       59.1282898987
atom        13.4426000000       15.5739000000       14.6208000000 C         0.0000000000         0.0000000000        85.4148660534      -28.2666057231      -29.5465894772
atom        15.8012000000       16.4300000000       14.7173000000 C         0.0000000000         0.0000000000       -98.2399019879      -32.0662204747      -47.2322547829
atom        15.3183000000       13.8920000000       14.6489000000 C         0.0000000000         0.0000000000        -4.7292598246       40.6296265394      -57.2687394750
atom        14.4413000000       16.7097000000       14.3083000000 N         0.0000000000         0.0000000000        68.3062356503     -196.6725760249      135.8963431194
atom        13.8286000000       14.1267000000       14.3854000000 N         0.0000000000         0.0000000000       158.8174247629      177.3051577329      100.7223774965
atom        16.3300000000       14.9869000000       14.1690000000 N         0.0000000000         0.0000000000       -82.9510320369      -14.5975420431      141.3419104832
energy     -2226.8077306239
charge 0
end
begin
comment generated by PY
lattice        30.0000000000         0.0000000000         0.0000000000
lattice         0.0000000000        30.0000000000         0.0000000000
lattice         0.0000000000         0.0000000000        30.0000000000
atom        17.3120000000       14.6194000000       14.7011000000 H         0.0000000000         0.0000000000      -124.1567348565       55.4147724640      -44.6577617410
atom        13.2858000000       15.4973000000       15.8001000000 H         0.0000000000         0.0000000000        18.0616809393       13.9573236153     -118.0735072587
atom        12.4184000000       15.8261000000       14.2788000000 H         0.0000000000         0.0000000000       115.2614233813      -28.8473727861       42.4918241095
atom        16.4706000000       17.1775000000       13.9651000000 H         0.0000000000         0.0000000000       -85.2508493205      -99.1595720428       53.5718127023
atom        16.0766000000       16.8454000000       15.5516000000 H         0.0000000000         0.0000000000       -35.4132801949      -61.2683645292     -100.4535283917
atom        15.3681000000       13.5950000000       15.7562000000 H         0.0000000000         0.0000000000        -9.1998965319       29.8487146060     -119.8315665815
atom        15.6160000000       12.8197000000       14.2241000000 H         0.0000000000         0.0000000000       -35.5324998421      117.2930456046       33.0754925063
atom        13.3914000000       15.6018000000       14.7090000000 C         0.0000000000         0.0000000000       145.9960110105      -24.7621665918      -37.0209476706
atom        15.8061000000       16.4140000000       14.5492000000 C         0.0000000000         0.0000000000       -63.6324772338       -5.1160086287        0.2183230160
atom        15.3231000000       13.7802000000       14.6536000000 C         0.0000000000         0.0000000000       -61.2512292343      131.0391156469      -15.8597241973
atom        14.3678000000       16.7445000000       14.4010000000 N         0.0000000000         0.0000000000        90.5568939221     -203.9447792883       71.5823864365
atom        13.9447000000       14.2277000000       14.2437000000 N         0.0000000000         0.0000000000       107.7623829469       90.3643319272      118.3926287054
atom        16.3193000000       14.9364000000       14.2868000000 N         0.0000000000         0.0000000000       -63.2012949861      -14.8183069366      116.5646783649
energy     -2228.7399786722
charge 0
end
begin
comment generated by PY
lattice        30.0000000000         0.0000000000         0.0000000000
lattice         0.0000000000        30.0000000000         0.0000000000
lattice         0.0000000000         0.0000000000        30.0000000000
atom        17.3837000000       14.9764000000       14.5096000000 H         0.0000000000         0.0000000000      -119.4611327002      -20.6669457486      -16.8892210465
atom        13.2514000000       15.7832000000       15.7152000000 H         0.0000000000         0.0000000000        21.0579070249      -24.1133281977     -117.5890117144
atom        12.4295000000       15.6119000000       14.1330000000 H         0.0000000000         0.0000000000       113.0754684831        6.1702921402       53.8079758723
atom        16.4927000000       17.2337000000       14.2699000000 H         0.0000000000         0.0000000000       -86.8428580123     -102.0528200007       44.8690886564
atom        15.8577000000       16.3777000000       15.7571000000 H         0.0000000000         0.0000000000        -9.9374225156        5.4471393938     -116.8032018001
atom        15.4871000000       13.5071000000       15.6112000000 H         0.0000000000         0.0000000000       -24.3557858322       36.8603937159     -106.4997595545
atom        15.5850000000       12.9132000000       13.9841000000 H         0.0000000000         0.0000000000       -38.4174235867      109.4608059060       62.0102131936
atom        13.3895000000       15.5833000000       14.6400000000 C         0.0000000000         0.0000000000       158.4445013839      -59.5878190246      -36.7109163721
atom        15.7884000000       16.4257000000       14.6732000000 C         0.0000000000         0.0000000000       -97.1139510413      -46.0035542632      -39.5529589186
atom        15.3116000000       13.8077000000       14.5861000000 C         0.0000000000         0.0000000000       -39.8179574726      105.4579467044      -18.7059861774
atom        14.4032000000       16.7323000000       14.3116000000 N         0.0000000000         0.0000000000        79.3229668238     -177.3035745196      114.9062752679
atom        13.9083000000       14.2084000000       14.4213000000 N         0.0000000000         0.0000000000       125.5098706081      120.1287560907       77.3163943559