begin
comment generated by PY
lattice        30.0000000000         0.0000000000         0.0000000000
lattice         0.0000000000        30.0000000000         0.0000000000
lattice         0.0000000000         0.0000000000        30.0000000000
atom        14.0484000000       15.8643000000       14.1489000000 H         0.0000000000         0.0000000000       -18.1889678199      -80.2405011790       77.8621057656
atom        12.7814000000       14.7545000000       14.9074000000 H         0.0000000000         0.0000000000       117.8038791548       32.3878217567        3.1877995882
atom        16.7661000000       14.6317000000       16.2842000000 H         0.0000000000         0.0000000000       -92.6623541891       38.8909291404      -69.5208260506
atom        16.3002000000       15.7952000000       14.9272000000 H         0.0000000000         0.0000000000       -38.1621347775      -79.6509279101       70.9622803962
atom        13.8102000000       15.0952000000       14.8751000000 C         0.0000000000         0.0000000000       117.9937376227      -63.8827465303      103.4716949712
atom        15.9970000000       15.0279000000       15.6308000000 C         0.0000000000         0.0000000000      -159.9888984779      -55.3118275625        7.3920081709
atom        14.7313000000       14.5724000000       15.7081000000 N         0.0000000000         0.0000000000        73.2053384869      207.8075292243     -193.3548359021
energy     -1216.3217724787
charge 0
end
begin
comment generated by PY
lattice        30.0000000000         0.0000000000         0.0000000000
lattice         0.0000000000        30.0000000000         0.0000000000
lattice         0.0000000000         0.0000000000        30.0000000000
atom        14.1219000000       15.8444000000       14.2861000000 H         0.0000000000         0.0000000000       -18.8450104940      -54.1481858839       42.5282010641
atom        12.8113000000       14.7991000000       14.7771000000 H         0.0000000000         0.0000000000       108.3842102478       18.9276919553       23.0395692153
atom        16.7977000000       14.6817000000       16.2975000000 H         0.0000000000         0.0000000000      -103.4433981737       35.6337698113      -75.5986007264
atom        16.3662000000       15.8234000000       14.8853000000 H         0.0000000000         0.0000000000       -57.0003930275      -86.9814510884       74.3415854988
atom        13.8220000000       15.0913000000       14.8761000000 C         0.0000000000         0.0000000000       122.3863535085      -74.0544208965      120.2568702280
atom        15.9898000000       15.0438000000       15.6110000000 C         0.0000000000         0.0000000000      -129.2824581843      -57.4206716092       27.1974389917
atom        14.7130000000       14.5548000000       15.7258000000 N         0.0000000000         0.0000000000        77.8007961231      218.0435446508     -211.7649412109
energy     -1209.5465531960
charge 0
end
begin
comment generated by PY
lattice        30.0000000000         0.0000000000         0.0000000000
lattice         0.0000000000        30.0000000000         0.0000000000
lattice         0.0000000000         0.0000000000        30.0000000000
atom        13.9720000000       15.9119000000       13.9892000000 H         0.0000000000         0.0000000000        -1.4079092549      -93.3517948216      105.6057576376
atom        12.8146000000       14.6944000000       15.0171000000 H         0.0000000000         0.0000000000       117.5265738713       52.0400731059      -19.8450195601
atom        16.7851000000       14.5506000000       16.1223000000 H         0.0000000000         0.0000000000       -90.0602082345       47.6419018742      -45.0217983269
atom        16.1602000000       15.8594000000       15.0062000000 H         0.0000000000         0.0000000000       -16.7543802830      -79.7290435187       63.4405349956
atom        13.8361000000       15.1109000000       14.8654000000 C         0.0000000000         0.0000000000        72.9025700920      -89.5156568822      111.8270806616
atom        15.9778000000       15.0347000000       15.6401000000 C         0.0000000000         0.0000000000      -168.2034467292      -67.1128981630       -6.5725785846
atom        14.7372000000       14.5552000000       15.7179000000 N         0.0000000000         0.0000000000        85.9975305382      230.0274414660     -209.4342168233
energy     -1204.2746571436
charge 0
end
begin
comment generated by PY
lattice        30.0000000000         0.0000000000         0.0000000000
lattice         0.0000000000        30.0000000000         0.0000000000
lattice         0.0000000000         0.0000000000        30.0000000000
atom        13.8993000000       16.0057000000       14.2732000000 H         0.0000000000         0.0000000000        -1.3896898272      -90.9012010765       66.3101779223
atom        12.8541000000       14.5708000000       14.8305000000 H         0.0000000000         0.0000000000       106.2227991222       60.7082852140        6.1971587918
atom        16.7087000000       14.7314000000       16.3334000000 H         0.0000000000         0.0000000000       -70.9961972954       18.4280100243      -61.3098048714
atom        16.2823000000       15.7461000000       14.9312000000 H         0.0000000000         0.0000000000       -28.0215984961      -74.4116947235       62.7029961778
atom        13.7923000000       15.1159000000       14.8691000000 C         0.0000000000         0.0000000000       109.7933010234      -91.5105168690      114.6098685467
atom        16.0109000000       15.0104000000       15.6324000000 C         0.0000000000         0.0000000000      -196.2314153612      -34.8278831845        7.6833404482
atom        14.7456000000       14.5690000000       15.7047000000 N         0.0000000000         0.0000000000        80.6222008342      212.5147775546     -196.1926939548
energy     -1217.9818264723
charge 0
end
begin
comment generated by PY
lattice        30.0000000000         0.0000000000         0.0000000000
lattice         0.0000000000        30.0000000000         0.0000000000
lattice         0.0000000000         0.0000000000        30.0000000000
atom        14.1121000000       15.7357000000       14.1557000000 H         0.0000000000         0.0000000000       -26.5875267353      -60.1129117715       67.1016045774
atom        12.7488000000       14.8666000000       14.8314000000 H         0.0000000000         0.0000000000       115.3703073958        7.9245419514       28.7390016961
atom        16.8553000000       14.4155000000       16.1911000000 H         0.0000000000         0.0000000000      -110.0650576174       75.2501781940      -64.2077216947
atom        16.3567000000       15.9279000000       15.0161000000 H         0.0000000000         0.0000000000       -48.4735657074      -95.6587262467       72.2035801289
atom        13.7969000000       15.0723000000       14.8995000000 C         0.0000000000         0.0000000000       145.9318775990      -43.8351124225       68.1967102271
atom        16.0070000000       15.0490000000       15.6498000000 C         0.0000000000         0.0000000000      -138.3672707878      -80.5338364439       -9.2075180523
atom        14.7214000000       14.5811000000       15.6761000000 N         0.0000000000         0.0000000000        62.1910358532      196.9660667392     -162.8247238219
energy     -1204.1152324345
charge 0
end
begin
comment generated by PY
lattice        30.0000000000         0.0000000000         0.0000000000
lattice         0.0000000000        30.0000000000         0.0000000000
lattice         0.0000000000         0.0000000000        30.0000000000
atom        13.9975000000       16.0101000000       14.2971000000 H         0.0000000000         0.0000000000       -15.9537893368      -97.1594632243       62.0209624133
atom        12.8174000000       14.6150000000       14.7752000000 H         0.0000000000         0.0000000000       116.8103220908       53.5056773054       15.4361935269
atom        16.8094000000       14.7410000000       16.3001000000 H         0.0000000000         0.0000000000      -105.2572725768       18.8633112536      -65.6972106915
atom        16.3718000000       15.7400000000       14.9075000000 H         0.0000000000         0.0000000000       -55.0013574585      -76.4396650273       64.6082596132
atom        13.8035000000       15.1035000000       14.8650000000 C         0.0000000000         0.0000000000       110.9372605665      -68.9601978229      113.5679754065
atom        15.9953000000       15.0168000000       15.6234000000 C         0.0000000000         0.0000000000      -138.4325585765      -39.0848126862       20.2997971644
atom        14.7314000000       14.5704000000       15.7222000000 N         0.0000000000         0.0000000000        86.8972952914      209.2754271412     -210.2357543722
energy     -1204.2350711866
charge 0
end
begin
comment generated by PY
lattice        30.0000000000         0.0000000000         0.0000000000
lattice         0.0000000000        30.0000000000         0.0000000000
lattice         0.0000000000         0.0000000000        30.0000000000
atom        14.0154000000       15.8434000000       14.0388000000 H         0.0000000000         0.0000000000        -6.5881216947      -82.6567852264       95.5926940650
atom        12.8244000000       14.7272000000       14.9673000000 H         0.0000000000         0.0000000000       112.0122003617       43.7399091389       -9.5544147281
atom        16.6738000000       14.5651000000       16.1492000000 H         0.0000000000         0.0000000000       -41.2650712871       31.4904325851      -34.0566796937
atom        16.1334000000       15.8843000000       15.0284000000 H         0.0000000000         0.0000000000        -7.3548025204      -86.2440146469       58.3830021605
atom        13.8336000000       15.1085000000       14.8628000000 C         0.0000000000         0.0000000000        88.0036739689      -85.8791288393      113.5476741198
atom        15.9882000000       15.0269000000       15.6216000000 C         0.0000000000         0.0000000000      -226.4471458082      -40.6369366653       -0.2998190340
atom        14.7365000000       14.5636000000       15.7325000000 N         0.0000000000         0.0000000000        81.6388900404      220.1874236538     -223.6127338291
energy     -1221.9778169126
charge 0
end
begin
comment generated by PY
lattice        30.0000000000         0.0000000000         0.0000000000
lattice         0.0000000000        30.0000000000         0.0000000000
lattice         0.0000000000         0.0000000000        30.0000000000
atom        14.0772000000       15.9684000000       14.3248000000 H         0.0000000000         0.0000000000       -18.8670177419      -92.1731403033       56.6051138898
atom        12.7738000000       14.7764000000       14.7205000000 H         0.0000000000         0.0000000000       125.8688465699       19.0074193426       31.9197430366
atom        16.8128000000       14.6562000000       16.2717000000 H         0.0000000000         0.0000000000      -107.6264754884       42.6589643634      -68.6994207296
atom        16.3359000000       15.7038000000       14.8136000000 H         0.0000000000         0.0000000000       -49.9119137548      -69.1206408708       83.4706829713
atom        13.8279000000       15.0787000000       14.8783000000 C         0.0000000000         0.0000000000       106.1395125115      -29.6278810109      100.5201399262
atom        15.9840000000       15.0475000000       15.6216000000 C         0.0000000000         0.0000000000      -130.1587776543      -79.8957487669        5.6104095706
atom        14.7198000000       14.5655000000       15.7230000000 N         0.0000000000         0.0000000000        74.5561024973      209.1515041852     -209.4262817253
energy     -1207.0022295178
charge 0
end
begin
comment generated by PY
lattice        30.0000000000         0.0000000000         0.0000000000
lattice         0.0000000000        30.0000000000         0.0000000000
lattice         0.0000000000         0.0000000000        30.0000000000
atom        14.1007000000       15.7279000000       14.1285000000 H         0.0000000000         0.0000000000       -27.9243519361      -52.0965456178       61.9093829317
atom        12.7897000000       14.7264000000       14.9287000000 H         0.0000000000         0.0000000000       110.2673903934       42.4827928253       -0.4616583732
atom        16.8377000000       14.5626000000       16.2416000000 H         0.0000000000         0.0000000000      -108.3762221626       40.8265822791      -74.2623371898
atom        16.4181000000       16.0245000000       15.2307000000 H         0.0000000000         0.0000000000       -66.6627984989     -109.3308349427       29.8914544000
atom        13.7907000000       15.1023000000       14.8725000000 C         0.0000000000         0.0000000000       132.7288180775     -104.4032689652      122.9872281563
atom        16.0048000000       15.0275000000       15.6068000000 C         0.0000000000         0.0000000000      -118.5014857295      -34.1510962349       72.0720089576
atom        14.7235000000       14.5669000000       15.7122000000 N         0.0000000000         0.0000000000        78.4681267958      216.6727475957     -212.1368358220
energy     -1195.1295792613
charge 0
end
begin
comment generated by PY
lattice        30.0000000000         0.0000000000         0.0000000000
lattice         0.0000000000        30.0000000000         0.0000000000
lattice         0.0000000000         0.0000000000        30.0000000000
atom        13.8612000000       16.0679000000       14.2201000000 H         0.0000000000         0.0000000000         3.4805612563     -108.7463034203       81.9136216808
atom        12.8532000000       14.5883000000       14.8924000000 H         0.0000000000         0.0000000000       105.2261434438       53.6804366580       -1.9190405966
atom        16.7114000000       14.6090000000       16.2834000000 H         0.0000000000         0.0000000000       -71.4336708466       41.0131581687      -50.4124098774
atom        16.2530000000       15.5801000000       14.8381000000 H         0.0000000000         0.0000000000       -14.0312940925      -43.3224993066       76.8510111314
atom        13.7988000000       15.1040000000       14.8836000000 C         0.0000000000         0.0000000000       112.3785919675      -67.8857868712      101.8447033445
atom        16.0037000000       15.0313000000       15.6699000000 C         0.0000000000         0.0000000000      -193.9493043656      -90.8094136650      -46.1291168643
atom        14.7509000000       14.5762000000       15.6696000000 N         0.0000000000         0.0000000000        58.3295426371      216.0706853757     -162.1490218790
energy     -1222.1726181756
charge 0
end
begin
comment generated by PY
lattice        30.0000000000         0.0000000000         0.0000000000
lattice         0.0000000000        30.0000000000         0.0000000000
lattice         0.0000000000         0.0000000000        30.0000000000
atom        14.0735000000       15.7962000000       14.1206000000 H         0.0000000000         0.0000000000       -23.7410370802      -72.3136157715       77.3302018395
atom        12.6664000000       14.7984000000       14.8408000000 H         0.0000000000         0.0000000000       140.1417607195       26.8989624194       19.5428135182
atom        16.7529000000       14.5178000000       16.2937000000 H         0.0000000000         0.0000000000       -88.2352235299       54.6106203309      -81.8410266755
atom        16.3813000000       15.9743000000       15.1916000000 H         0.0000000000         0.0000000000       -51.0393264639     -100.5308017013       37.4032965141
atom        13.7913000000       15.0912000000       14.8782000000 C         0.0000000000         0.0000000000       114.4280225024      -63.2053705471       87.3803471993
atom        16.0262000000       15.0313000000       15.6170000000 C         0.0000000000         0.0000000000      -152.8633025486      -53.6890440271       65.7729554312
atom        14.7240000000       14.5699000000       15.7045000000 N         0.0000000000         0.0000000000        61.3096064006      208.2292492967     -205.5883547662
energy     -1186.8286926156
charge 0
end
begin
comment generated by PY
lattice        30.0000000000         0.0000000000         0.0000000000
lattice         0.0000000000        30.0000000000         0.0000000000
lattice         0.0000000000         0.0000000000        30.0000000000
atom        14.0557000000       15.9612000000       14.2864000000 H         0.0000000000         0.0000000000       -22.9780861496      -88.2208112136       60.5564058817
atom        12.9289000000       14.6799000000       14.8393000000 H         0.0000000000         0.0000000000        59.5293924327       26.1590632130        3.9892620706
atom        16.7775000000       14.6139000000       16.2362000000 H         0.0000000000         0.0000000000      -100.5385308684       41.0325479891      -55.3635967982
atom        16.3494000000       15.6968000000       14.8739000000 H         0.0000000000         0.0000000000       -52.4726518707      -66.8792991894       74.9882630182
atom        13.8182000000       15.1011000000       14.8726000000 C         0.0000000000         0.0000000000       169.2344353576      -47.9167057335      119.3712968670
atom        15.9712000000       15.0261000000       15.6388000000 C         0.0000000000         0.0000000000      -131.3292025249      -72.9351449844       -9.5503658291
atom        14.7311000000       14.5755000000       15.7056000000 N         0.0000000000         0.0000000000        78.5547205629      208.7597499188     -193.9912052102
energy     -1236.1855691655
charge 0
end
begin
comment generated by PY
lattice        30.0000000000         0.0000000000         0.0000000000
lattice         0.0000000000        30.0000000000         0.0000000000
lattice         0.0000000000         0.0000000000        30.0000000000
atom        14.0206000000       15.7414000000       14.0161000000 H         0.0000000000         0.0000000000         2.6686316275      -59.6995505241       92.8713493824
atom        12.7565000000       14.8082000000       14.8085000000 H         0.0000000000         0.0000000000       126.4115634030       28.3259232053       26.9913977712
atom        16.8716000000       14.5675000000       16.1458000000 H         0.0000000000         0.0000000000      -107.9305817092       44.9592511533      -55.0009770187
atom        16.0853000000       15.9444000000       15.0381000000 H         0.0000000000         0.0000000000         1.7235953139     -104.1979629096       66.9286325990
atom        13.8263000000       15.1214000000       14.8695000000 C         0.0000000000         0.0000000000        81.8702420449      -95.9187522809       78.6378968495
atom        16.0045000000       15.0133000000       15.6367000000 C         0.0000000000         0.0000000000      -186.5109506471      -22.7879343174       -3.6789861903
atom        14.7227000000       14.5612000000       15.7263000000 N         0.0000000000         0.0000000000        81.7681999670      209.3187256734     -206.7490003326
energy     -1196.0535578095
charge 0
end
begin
comment generated by PY
lattice        30.0000000000         0.0000000000         0.0000000000
lattice         0.0000000000        30.0000000000         0.0000000000
lattice         0.0000000000         0.0000000000        30.0000000000
atom        13.9530000000       16.0942000000       14.3397000000 H         0.0000000000         0.0000000000        -1.3311155554     -115.4879575600       57.6476362521
atom        12.7398000000       14.6871000000       14.8351000000 H         0.0000000000         0.0000000000       136.4748077564       41.5679769611        5.9904859101
atom        16.6233000000       14.6986000000       16.4006000000 H         0.0000000000         0.0000000000       -62.5830713233       32.7895490868      -87.4278713021
atom        16.3303000000       15.7594000000       14.9259000000 H         0.0000000000         0.0000000000       -39.7554756080      -77.9652927036       59.8071628793
atom        13.8368000000       15.0932000000       14.8577000000 C         0.0000000000         0.0000000000        60.2868781275      -39.1517217316      135.5911374486
atom        15.9993000000       15.0148000000       15.6012000000 C         0.0000000000         0.0000000000      -179.6230230397      -53.3322996691       68.3156055056
atom        14.7243000000       14.5715000000       15.7317000000 N         0.0000000000         0.0000000000        86.5309996427      211.5798456163     -239.9245366936
energy     -1199.3488853548
charge 0
end
begin
comment generated by PY
lattice        30.0000000000         0.0000000000         0.0000000000
lattice         0.0000000000        30.0000000000         0.0000000000
lattice         0.0000000000         0.0000000000        30.0000000000
atom        14.1383000000       15.7376000000       14.1171000000 H         0.0000000000         0.0000000000       -33.9588486611      -59.2187418286       74.4027961624
atom        12.8439000000       14.7685000000       14.9109000000 H         0.0000000000         0.0000000000        86.0366991246       28.2306921037        5.6149439304
atom        16.7817000000       14.4866000000       16.0756000000 H         0.0000000000         0.0000000000       -93.9189872202       53.0141567770      -33.9658919854
atom        16.3595000000       15.8436000000       14.9708000000 H         0.0000000000         0.0000000000       -57.4535981663      -79.7963678852       75.7222946959
atom        13.8066000000       15.1014000000       14.8852000000 C         0.0000000000         0.0000000000       165.3172015351      -81.6837140783       92.0893784848
atom        15.9777000000       15.0447000000       15.6574000000 C         0.0000000000         0.0000000000      -135.4927789136      -81.3444018418      -40.3784930068
atom        14.7346000000       14.5676000000       15.6904000000 N         0.0000000000         0.0000000000        69.4713123014      220.7987767532     -173.4857382813
energy     -1230.0531488488
charge 0
end
begin
comment generated by PY
lattice        30.0000000000         0.0000000000         0.0000000000
lattice         0.0000000000        30.0000000000         0.0000000000
lattice         0.0000000000         0.0000000000        30.0000000000
atom        13.9382000000       15.9295000000       14.2082000000 H         0.0000000000         0.0000000000       -10.2128157746      -81.1362541921       65.5961220255
atom        12.7946000000       14.6588000000       14.9919000000 H         0.0000000000         0.0000000000       113.3065298597       50.1459758177      -17.8837738549
atom        16.8380000000       14.7250000000       16.3788000000 H         0.0000000000         0.0000000000      -109.2651617840       19.8383730175      -80.4548237061
atom        16.2790000000       15.7797000000       14.9323000000 H         0.0000000000         0.0000000000       -25.9994721438      -86.4843057714       71.7372965912
atom        13.7801000000       15.1052000000       14.8577000000 C         0.0000000000         0.0000000000       122.0844525162      -77.6871257335      136.7123507150
atom        16.0173000000       14.9910000000       15.6497000000 C         0.0000000000         0.0000000000      -169.6840816521       -5.9914462650       -5.0128681507
atom        14.7430000000       14.5921000000       15.6893000000 N         0.0000000000         0.0000000000        79.7702720392      181.3143831268     -170.6945336200
energy     -1204.0161034797
charge 0
end
begin
comment generated by PY
lattice        30.0000000000         0.0000000000         0.0000000000
lattice         0.0000000000        30.0000000000         0.0000000000
lattice         0.0000000000         0.0000000000        30.0000000000
atom        13.8915000000       15.9334000000       14.0844000000 H         0.0000000000         0.0000000000         2.9237846966      -95.3485218926       91.9618787946
atom        12.6549000000       14.8443000000       14.9296000000 H         0.0000000000         0.0000000000       138.8614412841       11.1644126014        7.2330189213
atom        16.6559000000       14.7674000000       16.4134000000 H         0.0000000000         0.0000000000       -65.0068776182        6.8335507385      -68.1017626672
atom        16.4727000000       15.7122000000       15.0585000000 H         0.0000000000         0.0000000000       -50.9201891934      -52.6264930554       25.2886275111
atom        13.7718000000       15.0847000000       14.8725000000 C         0.0000000000         0.0000000000        99.7976470268      -22.9848712517       83.2606210421
atom        16.0381000000       15.0081000000       15.6305000000 C         0.0000000000         0.0000000000      -184.4455407838      -46.4457614264       50.6858507300
atom        14.7447000000       14.5833000000       15.6950000000 N         0.0000000000         0.0000000000        58.7898215274      199.4074504073     -190.3276843319
energy     -1193.9909360351
charge 0
end
begin
comment generated by PY
lattice        30.0000000000         0.0000000000         0.0000000000
lattice         0.0000000000        30.0000000000         0.0000000000
lattice         0.0000000000         0.0000000000        30.0000000000
atom        14.0575000000       15.6819000000       14.0566000000 H         0.0000000000         0.0000000000       -13.3452380070      -51.1390853031       79.9671521832
atom        12.7856000000       14.8453000000       14.9474000000 H         0.0000000000         0.0000000000       110.5344664810       20.3855379940        7.7786421025
atom        16.8120000000       14.5181000000       16.2367000000 H         0.0000000000         0.0000000000      -105.2168705376       58.5337415576      -67.3539429147
atom        16.2197000000       15.8673000000       14.9498000000 H         0.0000000000         0.0000000000       -24.8857511768      -88.0529673068       84.8480631871
atom        13.8118000000       15.1022000000       14.8898000000 C         0.0000000000         0.0000000000       125.1778626781      -86.4394580817       79.2403528008
atom        15.9793000000       15.0348000000       15.6656000000 C         0.0000000000         0.0000000000      -154.9265352615      -68.0301112535      -31.1599925205
atom        14.7466000000       14.5699000000       15.6711000000 N         0.0000000000         0.0000000000        62.6628658239      214.7424962724     -153.3202148383
energy     -1225.1047550316
charge 0
end
begin
comment generated by PY
lattice        30.0000000000         0.0000000000         0.0000000000
lattice         0.0000000000        30.0000000000         0.0000000000
lattice         0.0000000000         0.0000000000        30.0000000000
atom        13.9818000000       16.0910000000       14.4128000000 H         0.0000000000         0.0000000000       -11.4170757584     -107.7915932917       43.3697372190
atom        12.8624000000       14.6359000000       14.9066000000 H         0.0000000000         0.0000000000       104.6936398724       55.2429640363      -13.9432291527
atom        16.7291000000       14.8306000000       16.4252000000 H         0.0000000000         0.0000000000       -85.7989244488       15.2872152707      -92.5147652056
atom        16.2347000000       15.7350000000       14.8192000000 H         0.0000000000         0.0000000000       -22.2116202507      -81.1185026674       84.8766406702
atom        13.8279000000       15.1117000000       14.8494000000 C         0.0000000000         0.0000000000        95.6478397413      -75.5072245614      169.4365557442
atom        16.0116000000       15.0178000000       15.6163000000 C         0.0000000000         0.0000000000      -182.5432546689      -31.4591251689       28.9670247238
atom        14.7098000000       14.5492000000       15.7214000000 N         0.0000000000         0.0000000000       101.6297724526      225.3465663824     -220.1928170594
energy     -1197.2620751767
charge 0
end
begin
comment generated by PY
lattice        30.0000000000         0.0000000000         0.0000000000
lattice         0.0000000000        30.0000000000         0.0000000000
lattice         0.0000000000         0.0000000000        30.0000000000
atom        14.2091000000       15.5853000000       13.9273000000 H         0.0000000000         0.0000000000       -37.4026366743      -46.9316095278      114.8744422270
atom        12.7171000000       14.8348000000       14.8249000000 H         0.0000000000         0.0000000000       136.3562729518       30.6985291335       23.7461478747
atom        16.8106000000       14.5593000000       15.9217000000 H         0.0000000000         0.0000000000       -86.5141715119       24.7289373708       -9.3841667467
atom        16.2864000000       15.8825000000       15.1254000000 H         0.0000000000         0.0000000000       -52.8248574599      -64.4838276563       38.0509661237
atom        13.8371000000       15.1200000000       14.8887000000 C         0.0000000000         0.0000000000        99.8579371421     -110.6724077184       46.8232230551
atom        15.9676000000       15.0448000000       15.6259000000 C         0.0000000000         0.0000000000      -143.6808749698      -77.9298245196       -0.6317117712
atom        14.7244000000       14.5497000000       15.7341000000 N         0.0000000000         0.0000000000        84.2087305219      244.5898259783     -213.4788738231
energy     -1208.4126280207
charge 0
end
begin
comment generated by PY
lattice        30.0000000000         0.0000000000         0.0000000000
lattice         0.0000000000        30.0000000000         0.0000000000
lattice         0.0000000000         0.0000000000        30.0000000000