begin
comment generated by PY
lattice        30.0000000000         0.0000000000         0.0000000000
lattice         0.0000000000        30.0000000000         0.0000000000
lattice         0.0000000000         0.0000000000        30.0000000000
atom        12.9495500000       14.5985300000       14.4933600000 H         0.0000000000         0.0000000000       130.2679864137      -29.9632676234       -4.1097638992
atom        17.0020300000       15.7686600000       14.1581900000 H         0.0000000000         0.0000000000       -85.5248374331      -90.9711894861       50.0932900953
atom        16.4842000000       15.1580000000       15.7420100000 H         0.0000000000         0.0000000000       -17.8372833732      -12.4740825433     -131.2301844692
atom        15.9534300000       11.7728400000       14.8955300000 H         0.0000000000         0.0000000000       -28.8799332715      128.2182470586      -47.4032380623
atom        14.0017900000       14.2872400000       14.4938600000 C         0.0000000000         0.0000000000       116.7778155461      -55.4396788788      -70.8870904250
atom        16.3369300000       15.0402800000       14.6365600000 C         0.0000000000         0.0000000000       -64.7752437339      -59.1123675249      -13.9370922167
atom        15.7231500000       12.8441600000       14.5996900000 C         0.0000000000         0.0000000000        30.5691720827       92.9326192034      -83.4210157580
atom        13.3483200000       16.8892400000       14.5913100000 O         0.0000000000         0.0000000000       303.8915484821      -39.8239629185       -4.0935351578
atom        15.5047500000       17.5035000000       14.7348500000 O         0.0000000000         0.0000000000      -226.0830020490     -205.6398724035      -41.1144882104
atom        14.9430300000       15.3468700000       14.3428000000 N         0.0000000000         0.0000000000        22.4274036039      -83.3897155146      100.7673641047
atom        14.3399100000       13.0802800000       14.3959500000 N         0.0000000000         0.0000000000       137.5948385189      245.7308638580       97.5672257800
atom        16.6694000000       13.6243300000       14.3698300000 N         0.0000000000         0.0000000000      -265.4245133906       29.8860637362      124.9427510850
atom        14.5852900000       16.6933200000       14.5772100000 N         0.0000000000         0.0000000000       -52.9678920308       80.0751154816       22.8149055843
energy     -2855.1657326991
charge 0
end
begin
comment generated by PY
lattice        30.0000000000         0.0000000000         0.0000000000
lattice         0.0000000000        30.0000000000         0.0000000000
lattice         0.0000000000         0.0000000000        30.0000000000
atom        12.9840500000       14.7343500000       14.2686800000 H         0.0000000000         0.0000000000       123.8716344526      -48.5715298336       11.4806790961
atom        16.9620300000       15.5395800000       13.8064900000 H         0.0000000000         0.0000000000       -67.9416725819      -57.5847104178       99.8742103728
atom        16.7119100000       15.4629300000       15.5847600000 H         0.0000000000         0.0000000000       -37.8535098371      -51.4590885656     -112.6180898358
atom        15.9352900000       11.7499300000       14.1248200000 H         0.0000000000         0.0000000000       -23.1769154292      116.9621175008       43.7939891705
atom        14.0082600000       14.3394000000       14.3408400000 C         0.0000000000         0.0000000000       152.2554836797      -56.5574906979       95.6590506670
atom        16.4106100000       15.0273500000       14.6213000000 C         0.0000000000         0.0000000000       -58.8905806863      -70.5382110274      -29.9307050761
atom        15.7213100000       12.7689000000       14.4201900000 C         0.0000000000         0.0000000000        33.9289314494      192.2096555959       25.8444549516
atom        13.3418900000       16.9445500000       14.5947700000 O         0.0000000000         0.0000000000       284.0363733813      -73.8006864626       -5.9129778157
atom        15.4627400000       17.4781600000       14.7231600000 O         0.0000000000         0.0000000000      -212.5255334241     -197.4425161115      -31.7212058345
atom        14.9442200000       15.3288100000       14.4137000000 N         0.0000000000         0.0000000000       -22.5886750412      -87.1007704105       23.9831496104
atom        14.3241200000       13.0759600000       14.5878400000 N         0.0000000000         0.0000000000       136.8030292457      235.8864703847     -116.3820134512
atom        16.7027100000       13.6400400000       14.5152800000 N         0.0000000000         0.0000000000      -284.1899117745       -9.7554824878      -17.4553509245
atom        14.5401800000       16.6831600000       14.5841600000 N         0.0000000000         0.0000000000       -23.7636824067      107.7189579790       13.3864147315
energy     -2846.9892105380
charge 0
end
begin
comment generated by PY
lattice        30.0000000000         0.0000000000         0.0000000000
lattice         0.0000000000        30.0000000000         0.0000000000
lattice         0.0000000000         0.0000000000        30.0000000000
atom        13.0127800000       14.5111700000       14.0717300000 H         0.0000000000         0.0000000000       127.4444587096        1.3031091705       65.9298748998
atom        16.9202600000       15.3034500000       13.6133700000 H         0.0000000000         0.0000000000       -56.4449030346      -23.4059975793      112.3929297646
atom        17.0096200000       15.6512300000       15.3398200000 H         0.0000000000         0.0000000000       -76.5820804836      -71.3457727473      -82.6492710554
atom        15.8488700000       11.7847200000       13.9846600000 H         0.0000000000         0.0000000000       -20.7474294862      128.9902062115       26.5049270131
atom        14.0548200000       14.3267700000       14.4316900000 C         0.0000000000         0.0000000000       113.0889317571      -89.3795656945        3.8922626766
atom        16.4710200000       15.0658800000       14.5818500000 C         0.0000000000         0.0000000000       -58.4039927382      -68.3741527051      -20.8184862734
atom        15.6563400000       12.8612700000       14.2242700000 C         0.0000000000         0.0000000000        66.0564069366       39.3814742328      214.2204880118
atom        13.2730100000       16.9858900000       14.5728600000 O         0.0000000000         0.0000000000       306.4256913549     -101.1877577727      -11.6755527281
atom        15.4680900000       17.4630900000       14.7179600000 O         0.0000000000         0.0000000000      -241.9907420620     -182.5489628607      -42.8106142204
atom        14.9999000000       15.3537800000       14.4944500000 N         0.0000000000         0.0000000000       -61.3951088727     -106.3127827261       -2.6027137318
atom        14.3358900000       13.0605600000       14.5841900000 N         0.0000000000         0.0000000000       156.7394546688      273.4748993862     -149.8127056619
atom        16.7192000000       13.5256700000       14.6754000000 N         0.0000000000         0.0000000000      -282.7894191483       60.5300688804     -160.4895295204
atom        14.4786500000       16.6733400000       14.5572500000 N         0.0000000000         0.0000000000        28.5780442393      138.8852584235       47.8623636938
energy     -2773.6519321320
charge 0
end
begin
comment generated by PY
lattice        30.0000000000         0.0000000000         0.0000000000
lattice         0.0000000000        30.0000000000         0.0000000000
lattice         0.0000000000         0.0000000000        30.0000000000
atom        13.0928100000       14.7495300000       14.9062800000 H         0.0000000000         0.0000000000       102.7563198442      -52.9462835849      -50.6311185960
atom        16.9028200000       15.3734600000       13.6105200000 H         0.0000000000         0.0000000000       -52.7305991914      -52.2330509640      109.0555298521
atom        16.9060300000       15.5464700000       15.3744800000 H         0.0000000000         0.0000000000       -51.5100061387      -72.2578427408      -95.4822397796
atom        15.9863800000       11.7820900000       13.9923600000 H         0.0000000000         0.0000000000       -30.9233197106      114.1341062324       59.1141015993
atom        14.0352300000       14.3389900000       14.5650400000 C         0.0000000000         0.0000000000       156.5112795052      -35.1804243507       -4.3343897723
atom        16.4764600000       14.9590000000       14.5481900000 C         0.0000000000         0.0000000000       -64.7836620171      -49.6399130098       11.9696846000
atom        15.7486700000       12.7851500000       14.3646500000 C         0.0000000000         0.0000000000        14.4378405029      158.8128367567        4.0432930658
atom        13.2999900000       16.9430100000       14.5200900000 O         0.0000000000         0.0000000000       298.3734363474      -59.9034562971       17.7020178816
atom        15.4362600000       17.5057200000       14.6939900000 O         0.0000000000         0.0000000000      -222.9860001595     -185.2441150090      -27.0347793817
atom        14.9626000000       15.3219200000       14.5423900000 N         0.0000000000         0.0000000000       -41.2470911938      -97.5436493799        3.6567978668
atom        14.3173100000       13.1109200000       14.3636400000 N         0.0000000000         0.0000000000       152.4785010816      218.8251737937       52.5216521374
atom        16.6772800000       13.5899400000       14.6329300000 N         0.0000000000         0.0000000000      -246.9748349441       28.7737791939      -90.6250408769
atom        14.5080200000       16.7230200000       14.5916600000 N         0.0000000000         0.0000000000       -13.3939629806       84.3565413241       10.0140908745
energy     -2868.3082639154
charge 0
end
begin
comment generated by PY
lattice        30.0000000000         0.0000000000         0.0000000000
lattice         0.0000000000        30.0000000000         0.0000000000
lattice         0.0000000000         0.0000000000        30.0000000000
atom        12.9386900000       14.4996000000       14.8326000000 H         0.0000000000         0.0000000000       138.8787014974      -13.2181615333      -22.5899628511
atom        16.8145400000       15.5864300000       13.7147400000 H         0.0000000000         0.0000000000       -53.7017769564      -61.8251849684      103.5634736622
atom        16.8262100000       15.4030800000       15.5072100000 H         0.0000000000         0.0000000000       -55.8584342809      -37.1487439661     -110.6642165824
atom        15.7909100000       11.7571600000       14.8283800000 H         0.0000000000         0.0000000000        -1.5080017168      110.3158422816      -68.8509995485
atom        14.0215700000       14.2852900000       14.6652100000 C         0.0000000000         0.0000000000       109.4609496562      -65.3841093919     -137.7600154284
atom        16.3670600000       15.0605300000       14.5739500000 C         0.0000000000         0.0000000000       -55.8064563703      -65.9818714947      -16.0479168921
atom        15.6919500000       12.7638900000       14.4161200000 C         0.0000000000         0.0000000000        30.8042725490      170.3748111091       53.8298297527
atom        13.3659400000       16.8720900000       14.4839900000 O         0.0000000000         0.0000000000       285.4835141627      -45.2048318991       46.4002408430
atom        15.4362900000       17.5919300000       14.6721000000 O         0.0000000000         0.0000000000      -183.8557804081     -241.4228993834       -1.9640534456
atom        14.9383100000       15.3682400000       14.5750800000 N         0.0000000000         0.0000000000        35.1325112514     -104.4636490501       41.3084040933
atom        14.3601700000       13.0949600000       14.2445800000 N         0.0000000000         0.0000000000       121.8009501643      225.6616993583      165.3925927080
atom        16.6848200000       13.5718500000       14.5120100000 N         0.0000000000         0.0000000000      -281.9748803436        8.4340955679       -0.8735276724
atom        14.5977300000       16.6851500000       14.6416500000 N         0.0000000000         0.0000000000       -88.7939660848      119.8565929636      -51.7582198444
energy     -2832.0707820283
charge 0
end
begin
comment generated by PY
lattice        30.0000000000         0.0000000000         0.0000000000
lattice         0.0000000000        30.0000000000         0.0000000000
lattice         0.0000000000         0.0000000000        30.0000000000
atom        12.9765800000       14.6699900000       14.3920500000 H         0.0000000000         0.0000000000       128.1952042783      -32.2510604217       11.7294774562
atom        16.8146700000       15.7162200000       13.7850000000 H         0.0000000000         0.0000000000       -61.1242463756      -79.8341785627       85.5353405384
atom        16.8864300000       15.3637400000       15.5051500000 H         0.0000000000         0.0000000000       -63.5366515378      -32.4400159189     -112.5747223875
atom        15.9960000000       11.7332900000       14.5257200000 H         0.0000000000         0.0000000000       -42.0537905549      129.7165570063       -0.9022241022
atom        14.0036800000       14.3336100000       14.4900200000 C         0.0000000000         0.0000000000       144.4137027375      -88.5828820022      -12.9563478488
atom        16.3704600000       15.0674400000       14.5628100000 C         0.0000000000         0.0000000000       -47.8960152280      -78.3682181119       39.7195451220
atom        15.6866700000       12.8048400000       14.5161600000 C         0.0000000000         0.0000000000        59.9391235940      124.5722952776      -79.3862924857
atom        13.3628500000       16.8279200000       14.4777000000 O         0.0000000000         0.0000000000       299.1223317786       -7.1511536338       38.9550627629
atom        15.4789000000       17.5872500000       14.6703700000 O         0.0000000000         0.0000000000      -228.0330830765     -233.4066961197      -11.1841502237
atom        14.9671400000       15.2823500000       14.7414500000 N         0.0000000000         0.0000000000         0.6092899040      -63.0711112206      -88.7727209376
atom        14.2983400000       13.0345300000       14.3229800000 N         0.0000000000         0.0000000000       159.4079818949      275.0925452190       90.7523030369
atom        16.6878300000       13.6403000000       14.4165400000 N         0.0000000000         0.0000000000      -292.3122754949        6.2230435253       57.1312942697
atom        14.5778500000       16.7194000000       14.6237700000 N         0.0000000000         0.0000000000       -56.7282128373       79.4980234260      -18.0523852476
energy     -2830.2662966223
charge 0
end
begin
comment generated by PY
lattice        30.0000000000         0.0000000000         0.0000000000
lattice         0.0000000000        30.0000000000         0.0000000000
lattice         0.0000000000         0.0000000000        30.0000000000
atom        13.0878900000       14.8022700000       14.0438600000 H         0.0000000000         0.0000000000       110.7298381154      -59.1695875211       37.7044145884
atom        16.7293900000       15.4913600000       13.6185800000 H         0.0000000000         0.0000000000       -26.9627051833      -51.4875829289      117.1367164697
atom        17.0907500000       15.5145300000       15.3649300000 H         0.0000000000         0.0000000000       -76.1985783238      -64.5747465485      -84.6381495207
atom        15.9078900000       11.7590700000       14.2590400000 H         0.0000000000         0.0000000000       -14.8380808507      120.4434133353       20.5793489858
atom        14.0378000000       14.3257200000       14.3339200000 C         0.0000000000         0.0000000000       114.0816799867      -45.0277233595      114.4653748865
atom        16.4974100000       15.0179500000       14.5964300000 C         0.0000000000         0.0000000000       -73.8712014367      -80.8901218492      -49.3467397384
atom        15.7426600000       12.8060500000       14.4232300000 C         0.0000000000         0.0000000000        12.1400151436      159.3534016899       10.4443604375
atom        13.3309700000       16.9293300000       14.4853300000 O         0.0000000000         0.0000000000       275.3104969892      -86.2597771803       27.8003319996
atom        15.4370900000       17.4572900000       14.6707100000 O         0.0000000000         0.0000000000      -208.6400930263     -187.9898537708      -15.4525255489
atom        14.9419200000       15.3470600000       14.8170000000 N         0.0000000000         0.0000000000       -29.7242519048      -76.1307234036     -134.6762464279
atom        14.3044000000       13.1186700000       14.4835900000 N         0.0000000000         0.0000000000       147.2310393903      223.4313315506      -78.4963359241
atom        16.6588700000       13.6435000000       14.4355100000 N         0.0000000000         0.0000000000      -232.6623745413       20.2872899236       27.6868986031
atom        14.5138100000       16.6421600000       14.6101400000 N         0.0000000000         0.0000000000         3.4343865965      127.9342244784        6.8007466529
energy     -2859.4169324962
charge 0
end
begin
comment generated by PY
lattice        30.0000000000         0.0000000000         0.0000000000
lattice         0.0000000000        30.0000000000         0.0000000000
lattice         0.0000000000         0.0000000000        30.0000000000
atom        13.1660700000       14.5500600000       13.9042700000 H         0.0000000000         0.0000000000       104.1198069845        4.1776038164       79.5853984540
atom        16.7768600000       15.6769200000       13.7256200000 H         0.0000000000         0.0000000000       -42.8222702233      -76.5210457337       94.4640521685
atom        16.7774800000       15.3950200000       15.5323800000 H         0.0000000000         0.0000000000       -31.1547188758      -36.9803194643     -123.5257949124
atom        15.9345600000       11.7036700000       14.2706600000 H         0.0000000000         0.0000000000       -35.6142149476      131.8438181845       15.4727978603
atom        14.1032200000       14.3924400000       14.4204400000 C         0.0000000000         0.0000000000       102.0034020160     -104.4887129263       12.3781757049
atom        16.4251100000       15.0472800000       14.5511000000 C         0.0000000000         0.0000000000       -61.8486510244      -61.6178515775       75.8933119672
atom        15.6849800000       12.7887800000       14.3772100000 C         0.0000000000         0.0000000000        59.1798450198      122.9193014808       67.0902666958
atom        13.2518500000       17.0206800000       14.4881200000 O         0.0000000000         0.0000000000       311.8169118595      -97.6837647353       42.5681756601
atom        15.4788700000       17.3752100000       14.6602400000 O         0.0000000000         0.0000000000      -254.2743093319     -141.1924527736       -3.6064979281
atom        14.9111900000       15.3132000000       14.7518800000 N         0.0000000000         0.0000000000       -36.9971168529      -82.7644145750     -117.7197848872
atom        14.3817100000       13.1366000000       14.4849600000 N         0.0000000000         0.0000000000       178.7209904312      198.2961515377      -68.2782759997
atom        16.7736900000       13.5513500000       14.4775200000 N         0.0000000000         0.0000000000      -316.5390384259       42.7358446552      -40.6346561218
atom        14.4619500000       16.6893100000       14.6343300000 N         0.0000000000         0.0000000000        23.4288456549      101.2886837758      -33.7074534008
energy     -2837.1588610349
charge 0
end
begin
comment generated by PY
lattice        30.0000000000         0.0000000000         0.0000000000
lattice         0.0000000000        30.0000000000         0.0000000000
lattice         0.0000000000         0.0000000000        30.0000000000
atom        12.9112900000       14.6548300000       14.5886200000 H         0.0000000000         0.0000000000       129.6440227180      -42.1503241261      -26.7486679554
atom        16.8392000000       15.5041800000       13.7770200000 H         0.0000000000         0.0000000000       -61.2084120422      -51.1918717836      103.1669513403
atom        16.9789900000       15.3623700000       15.4959300000 H         0.0000000000         0.0000000000       -85.0491325363      -40.7862948737      -91.2460479994
atom        16.0080600000       11.6881300000       14.4206200000 H         0.0000000000         0.0000000000       -24.4645280343      126.3481072397        5.3422567319
atom        13.9683100000       14.3228000000       14.4652500000 C         0.0000000000         0.0000000000       173.3451133263      -65.8041039836       37.4025376988
atom        16.3889100000       14.9865700000       14.6470500000 C         0.0000000000         0.0000000000         4.8173447948      -61.8222050221      -69.7233301022
atom        15.7790700000       12.7498800000       14.4758300000 C         0.0000000000         0.0000000000        18.2802218048      175.6728817732      -59.6004727415
atom        13.3047900000       17.0126000000       14.5199900000 O         0.0000000000         0.0000000000       301.8569836719      -78.6471283282       22.5080097598
atom        15.4872700000       17.4835700000       14.6593600000 O         0.0000000000         0.0000000000      -235.9373895688     -186.6486473289      -12.4543932486
atom        14.8838400000       15.3322300000       14.6573300000 N         0.0000000000         0.0000000000       -17.0326868393     -101.0328085818      -35.9227338486
atom        14.3785500000       13.0259400000       14.3495400000 N         0.0000000000         0.0000000000       114.9619820532      249.1816639972       61.8007751929
atom        16.7364400000       13.6445600000       14.4337500000 N         0.0000000000         0.0000000000      -298.8772985943      -21.0846254200       69.7601094313
atom        14.5197900000       16.7266500000       14.6066400000 N         0.0000000000         0.0000000000       -20.2989116348       97.9003254797       -4.2586713557
energy     -2814.7605360253
charge 0
end
begin
comment generated by PY
lattice        30.0000000000         0.0000000000         0.0000000000
lattice         0.0000000000        30.0000000000         0.0000000000
lattice         0.0000000000         0.0000000000        30.0000000000
atom        12.9204100000       14.4126700000       14.5416400000 H         0.0000000000         0.0000000000       131.1689984987      -17.6168644365        6.6329306378
atom        16.8740300000       15.7944800000       13.9074100000 H         0.0000000000         0.0000000000       -63.7699683638      -92.9444824290       77.6348719941
atom        16.5653300000       15.4251000000       15.6284200000 H         0.0000000000         0.0000000000        -7.6239356197      -39.6001316026     -121.6586274869
atom        15.9815800000       11.7516800000       14.4842800000 H         0.0000000000         0.0000000000       -27.2000705029      128.1654004482      -17.3393149332
atom        13.9859800000       14.1637000000       14.5564900000 C         0.0000000000         0.0000000000       105.3259380713      -41.9342030526      -81.9412233548
atom        16.3624800000       15.0924000000       14.6038300000 C         0.0000000000         0.0000000000      -112.3112592053      -74.8229851675       47.4341341235
atom        15.7139500000       12.8186600000       14.3975500000 C         0.0000000000         0.0000000000        35.4239643493      106.1778375476       38.4141418655
atom        13.4191200000       16.9517800000       14.5652600000 O         0.0000000000         0.0000000000       254.8580876561      -74.4939275618       -0.5608995499
atom        15.4654000000       17.6088100000       14.6564000000 O         0.0000000000         0.0000000000      -182.1089395093     -254.2400416340      -22.5035347283
atom        14.9178700000       15.2935600000       14.5692900000 N         0.0000000000         0.0000000000        46.5668234409      -54.2140803099       -7.3951299919
atom        14.3528000000       12.9896800000       14.3236100000 N         0.0000000000         0.0000000000       137.3680987863      255.9347023588       83.2268528999
atom        16.6407700000       13.6553100000       14.5320300000 N         0.0000000000         0.0000000000      -246.8278261830       18.3131848734      -28.3432160955
atom        14.5932200000       16.6914400000       14.5799800000 N         0.0000000000         0.0000000000       -70.8597488362      141.3012879614       26.3924984242
energy     -2861.8653034535
charge 0
end
begin
comment generated by PY
lattice        30.0000000000         0.0000000000         0.0000000000
lattice         0.0000000000        30.0000000000         0.0000000000
lattice         0.0000000000         0.0000000000        30.0000000000
atom        13.0031300000       14.6929100000       14.6385100000 H         0.0000000000         0.0000000000       120.0017960086      -50.9049775055      -15.5337795852
atom        16.8841200000       15.5017400000       13.7766000000 H         0.0000000000         0.0000000000       -54.6922985956      -46.4831493825      112.7931832231
atom        16.7981600000       15.5840300000       15.5904900000 H         0.0000000000         0.0000000000       -56.1950422134      -61.8273624268     -107.4717101900
atom        16.1440500000       11.8066800000       14.0674600000 H         0.0000000000         0.0000000000       -51.8100852029      115.7436265966       35.1133130694
atom        14.0102900000       14.2816500000       14.5110200000 C         0.0000000000         0.0000000000       115.4674121790      -55.3494044994      -23.0576133270
atom        16.3957600000       15.0796300000       14.6794400000 C         0.0000000000         0.0000000000       -75.9943727692      -95.5985833304      -61.8867888719
atom        15.7717500000       12.8078200000       14.3199200000 C         0.0000000000         0.0000000000        38.4254189092      158.3281056991       68.4874537132
atom        13.3463800000       16.8758200000       14.5982800000 O         0.0000000000         0.0000000000       295.3714992061      -21.0140770600        6.4513034450
atom        15.5045900000       17.5266300000       14.6326300000 O         0.0000000000         0.0000000000      -238.3556170647     -207.5373819797       -1.3454092370
atom        14.9379400000       15.3168600000       14.4418800000 N         0.0000000000         0.0000000000        22.1615797378      -75.6772413718       75.4131749924
atom        14.2716100000       12.9966100000       14.3974600000 N         0.0000000000         0.0000000000       159.9667104937      285.7445390615       10.5826954394
atom        16.6377600000       13.6857700000       14.6207300000 N         0.0000000000         0.0000000000      -233.1558302450       -6.0073372260      -74.4788717354
atom        14.5618200000       16.7161500000       14.6099100000 N         0.0000000000         0.0000000000       -41.2833903933       60.5971699998      -25.0522093374
energy     -2830.8338672247
charge 0
end
begin
comment generated by PY
lattice        30.0000000000         0.0000000000         0.0000000000
lattice         0.0000000000        30.0000000000         0.0000000000
lattice         0.0000000000         0.0000000000        30.0000000000
atom        12.9657100000       14.6937500000       14.6740100000 H         0.0000000000         0.0000000000       134.0501061178      -30.3551706639      -32.3216173130
atom        17.1151000000       15.5211200000       13.9448900000 H         0.0000000000         0.0000000000       -89.1939332035      -58.5170884339       78.5568166660
atom        16.7379000000       15.4462400000       15.6527300000 H         0.0000000000         0.0000000000       -41.3888010153      -49.9201425574     -114.3916858024
atom        15.8158900000       11.7869700000       14.0842400000 H         0.0000000000         0.0000000000        -4.7497853032      125.2942774862       36.5175175944
atom        14.0147900000       14.3949600000       14.4523800000 C         0.0000000000         0.0000000000       170.7455091799      -81.0313635554       30.4350229856
atom        16.4560500000       15.0091000000       14.6664400000 C         0.0000000000         0.0000000000       -19.0927822386      -65.6404904956        8.6005205041
atom        15.6784200000       12.8407600000       14.3445900000 C         0.0000000000         0.0000000000        37.4756741839      119.6120750711       56.4842634926
atom        13.2603600000       16.9109300000       14.6445200000 O         0.0000000000         0.0000000000       306.6035476002      -78.0545202438      -24.2638338681
atom        15.4577200000       17.4012000000       14.6351500000 O         0.0000000000         0.0000000000      -225.1888253460     -159.8518867687      -13.7231768979
atom        14.9562700000       15.3779300000       14.4099400000 N         0.0000000000         0.0000000000       -81.0309998154     -117.3006428970       45.8571387769
atom        14.4007700000       13.1453000000       14.4319000000 N         0.0000000000         0.0000000000       113.3102650731      242.2845390675      -20.2444143748
atom        16.7368800000       13.6061800000       14.6290400000 N         0.0000000000         0.0000000000      -304.7847912379       42.0255538497      -76.6321347813