begin
comment generated by PY
lattice        30.0000000000         0.0000000000         0.0000000000
lattice         0.0000000000        30.0000000000         0.0000000000
lattice         0.0000000000         0.0000000000        30.0000000000
atom        13.6708000000       14.6282000000       15.6960000000 H         0.0000000000         0.0000000000        73.3636173533       92.0813320490      -31.7103611247
atom        18.1279000000       16.3158000000       14.0936000000 H         0.0000000000         0.0000000000      -115.4174546897      -34.9927786479       13.6957534238
atom        16.9693000000       15.6689000000       15.3742000000 H         0.0000000000         0.0000000000         7.9006892944       40.0790883623     -109.1365635027
atom        12.4067000000       15.5871000000       17.1957000000 H         0.0000000000         0.0000000000        83.0743683815      -29.7101102043       90.5245257344
atom        14.7160000000       13.1810000000       13.8424000000 H         0.0000000000         0.0000000000       -24.8824962297      106.3375058804      -49.8830687782
atom        14.3584000000       13.9673000000       12.2284000000 H         0.0000000000         0.0000000000        21.4339358186       33.2787589821      118.7148137158
atom        14.3313000000       15.4520000000       15.4304000000 C         0.0000000000         0.0000000000         8.5739748750       53.2937277759       40.0614698735
atom        17.1183000000       16.0003000000       14.3504000000 C         0.0000000000         0.0000000000      -180.8707584983      -17.3111917017     -129.5307194386
atom        14.5152000000       14.0887000000       13.2912000000 C         0.0000000000         0.0000000000        16.8832584151      115.1238382556       68.4265695583
atom        14.9200000000       16.0762000000       18.8323000000 O         0.0000000000         0.0000000000      -190.9084508665      -52.0255155482     -266.5608209159
atom        12.9285000000       15.3004000000       17.9723000000 O         0.0000000000         0.0000000000       112.7023556197      106.2540041946     -105.8708423160
atom        14.6568000000       16.2826000000       16.4075000000 N         0.0000000000         0.0000000000       -80.2613792593     -216.2060012817      -91.7471787893
atom        14.5905000000       15.4142000000       13.9266000000 N         0.0000000000         0.0000000000        52.0045817584     -196.5278353384      116.5086833530
atom        16.1614000000       15.9924000000       13.4450000000 N         0.0000000000         0.0000000000       178.9005912507      -10.4732735254      239.2450862726
atom        14.2094000000       15.8625000000       17.8098000000 N         0.0000000000         0.0000000000        37.5032367768       10.7984138082       97.2634990550
energy     -2731.9445927013
charge 0
end
begin
comment generated by PY
lattice        30.0000000000         0.0000000000         0.0000000000
lattice         0.0000000000        30.0000000000         0.0000000000
lattice         0.0000000000         0.0000000000        30.0000000000
atom        14.1581000000       14.3545000000       15.8452000000 H         0.0000000000         0.0000000000        28.8394268300      125.4203749944      -30.3869879727
atom        18.3609000000       16.2187000000       13.2505000000 H         0.0000000000         0.0000000000      -100.3799862190      -27.8493843836       37.0148278439
atom        17.7479000000       14.9013000000       14.3438000000 H         0.0000000000         0.0000000000       -38.7612084856       95.0171555039      -78.4381537995
atom        12.7242000000       15.1673000000       18.9662000000 H         0.0000000000         0.0000000000        19.0296824950        5.2991846893     -144.7118482479
atom        13.5174000000       13.5689000000       13.8601000000 H         0.0000000000         0.0000000000       103.2768001188       75.9018310672      -39.5438431034
atom        14.6036000000       13.8552000000       12.4555000000 H         0.0000000000         0.0000000000        -5.8703981866       40.7211777406       91.6675463160
atom        14.4610000000       15.3926000000       15.5755000000 C         0.0000000000         0.0000000000         6.8271387706       40.5160395326       67.2769323711
atom        17.4848000000       15.7886000000       13.6772000000 C         0.0000000000         0.0000000000      -209.4537726400       36.8692347689       21.0001268023
atom        14.3701000000       14.1507000000       13.4164000000 C         0.0000000000         0.0000000000        29.7841801644      143.8573610083       96.3404812982
atom        14.7370000000       16.1238000000       18.8360000000 O         0.0000000000         0.0000000000      -175.2823195678      -32.1452802075     -218.4860720180
atom        12.8028000000       15.1927000000       17.9567000000 O         0.0000000000         0.0000000000       135.8878577590       81.1305863971      127.0033608235
atom        14.4888000000       16.3436000000       16.4626000000 N         0.0000000000         0.0000000000       -18.6572677058     -244.7265476567      -90.1063857396
atom        14.8589000000       15.2597000000       14.0440000000 N         0.0000000000         0.0000000000      -112.1909289841     -177.3281267751       66.4037101414
atom        16.2819000000       16.2648000000       13.5370000000 N         0.0000000000         0.0000000000       273.2268674577     -140.6140730577       28.5999974907
atom        13.9784000000       16.0233000000       17.8837000000 N         0.0000000000         0.0000000000        63.7228751329      -22.0688105611       66.3665808545
energy     -2734.5174435636
charge 0
end
begin
comment generated by PY
lattice        30.0000000000         0.0000000000         0.0000000000
lattice         0.0000000000        30.0000000000         0.0000000000
lattice         0.0000000000         0.0000000000        30.0000000000
atom        13.7705000000       15.6428000000       15.7000000000 H         0.0000000000         0.0000000000       105.6489613702      -73.7069991141      -16.9074259089
atom        17.4173000000       17.5203000000       13.1238000000 H         0.0000000000         0.0000000000       -64.6367429206     -124.7700999271       19.5957187604
atom        17.7691000000       15.6807000000       13.3309000000 H         0.0000000000         0.0000000000       -79.2594393605       74.9392513507        1.4495794701
atom        12.5395000000       14.8814000000       18.1401000000 H         0.0000000000         0.0000000000        30.0819018336      104.8912008125      -80.3695106493
atom        13.3518000000       14.2717000000       13.7634000000 H         0.0000000000         0.0000000000       115.2113664077       17.4901925308      -44.5913740104
atom        14.6227000000       14.2837000000       12.3465000000 H         0.0000000000         0.0000000000       -15.2186953122       20.5970897068      122.3267175402
atom        14.6924000000       15.0461000000       15.7364000000 C         0.0000000000         0.0000000000        31.7388261568       50.8287261258      106.2277400595
atom        17.0275000000       16.4494000000       13.3408000000 C         0.0000000000         0.0000000000      -180.4639261702      -47.6477813606      121.8885392929
atom        14.3660000000       14.4230000000       13.3852000000 C         0.0000000000         0.0000000000        79.1792929904        5.0818240464      141.2321675778
atom        14.5189000000       16.7175000000       18.6168000000 O         0.0000000000         0.0000000000      -109.3009674050     -200.4143479012     -211.7918873797
atom        12.6925000000       15.6610000000       17.5357000000 O         0.0000000000         0.0000000000       157.5998923444      -61.5744384093      109.9795448394
atom        15.0390000000       15.0277000000       16.9896000000 N         0.0000000000         0.0000000000      -135.7317720686       81.4436296450     -230.8322516274
atom        15.3733000000       14.6580000000       14.4429000000 N         0.0000000000         0.0000000000      -230.8291844908       81.9952408357      -40.9814889507
atom        15.7880000000       16.2278000000       13.8497000000 N         0.0000000000         0.0000000000       279.9630858495       14.5849312101      -85.3623041374
atom        14.0976000000       15.9598000000       17.7195000000 N         0.0000000000         0.0000000000        16.0181007753       56.2619035090       88.1362381841
energy     -2706.3222375288
charge 0
end
begin
comment generated by PY
lattice        30.0000000000         0.0000000000         0.0000000000
lattice         0.0000000000        30.0000000000         0.0000000000
lattice         0.0000000000         0.0000000000        30.0000000000
atom        14.4567000000       14.2307000000       16.1199000000 H         0.0000000000         0.0000000000        24.5091748929      128.2289821153      -43.7715674776
atom        17.8609000000       16.6338000000       13.1979000000 H         0.0000000000         0.0000000000       -71.1723252088      -67.9704356826       47.3421630130
atom        17.5211000000       15.1108000000       14.3493000000 H         0.0000000000         0.0000000000       -35.3140086533       95.1253520692      -86.5521248654
atom        12.5563000000       15.2452000000       18.5895000000 H         0.0000000000         0.0000000000        79.7988716864       -7.1255147709     -134.1618982539
atom        13.3577000000       13.7593000000       13.5235000000 H         0.0000000000         0.0000000000        86.3332947695       51.0546454670       -9.1399690680
atom        14.4946000000       14.1173000000       12.1581000000 H         0.0000000000         0.0000000000       -10.6273185704       24.3503349951      139.8461017457
atom        14.7553000000       15.2358000000       15.7466000000 C         0.0000000000         0.0000000000        25.9559028108       -2.2288522047       25.2456189686
atom        17.1972000000       15.9491000000       13.6538000000 C         0.0000000000         0.0000000000      -238.4081037374       13.7529725695       19.8692449172
atom        14.2376000000       14.2325000000       13.2538000000 C         0.0000000000         0.0000000000       107.2890169992       72.5191476713       93.3975112594
atom        14.1956000000       16.6001000000       18.9465000000 O         0.0000000000         0.0000000000        -3.1383140620     -149.1946564065     -267.4604636571
atom        13.0141000000       15.1377000000       17.6654000000 O         0.0000000000         0.0000000000        90.2739040893      117.0355751867      143.8054798706
atom        14.9755000000       16.2466000000       16.6128000000 N         0.0000000000         0.0000000000      -143.6360129113     -240.6564070560      -53.1734340525
atom        15.0823000000       14.9021000000       14.2074000000 N         0.0000000000         0.0000000000      -127.6196839088       38.6715606831      -19.5699305837
atom        15.9334000000       16.1681000000       13.5212000000 N         0.0000000000         0.0000000000       262.5112112111     -139.6719315456       61.3164691759
atom        14.1638000000       15.9460000000       17.8613000000 N         0.0000000000         0.0000000000       -46.7556094071       66.1096899697       83.0073990078
energy     -2725.9108299187
charge 0
end
begin
comment generated by PY
lattice        30.0000000000         0.0000000000         0.0000000000
lattice         0.0000000000        30.0000000000         0.0000000000
lattice         0.0000000000         0.0000000000        30.0000000000
atom        13.6102000000       14.8744000000       15.8248000000 H         0.0000000000         0.0000000000       100.8119143043       15.7342502674      -23.4411630687
atom        18.1340000000       16.1772000000       13.0211000000 H         0.0000000000         0.0000000000       -88.3552427019      -37.7577484216       68.0877038624
atom        17.4497000000       14.7630000000       14.0426000000 H         0.0000000000         0.0000000000       -15.0934955784      105.6517980700      -48.5824868940
atom        12.6406000000       15.1712000000       18.7512000000 H         0.0000000000         0.0000000000        85.3296790519      -26.0651480972      -65.1812254179
atom        13.0752000000       14.3042000000       13.3954000000 H         0.0000000000         0.0000000000       111.9163832727       46.2237474812      -15.3047840670
atom        14.3048000000       14.8385000000       12.1098000000 H         0.0000000000         0.0000000000       -12.1111449850      -13.0507630221      124.7915544785
atom        14.6027000000       15.1567000000       15.6654000000 C         0.0000000000         0.0000000000        20.1191739489      100.9950636690       61.5622388978
atom        17.3298000000       15.7366000000       13.5966000000 C         0.0000000000         0.0000000000      -214.1323984008       83.0764213148      -18.8299561348
atom        14.0626000000       14.6829000000       13.1543000000 C         0.0000000000         0.0000000000       103.8569657275       35.8616799040      126.9140054030
atom        13.7775000000       16.9806000000       18.4329000000 O         0.0000000000         0.0000000000       110.8353063286     -250.3204656408     -133.3916275222
atom        13.3300000000       14.7903000000       18.2084000000 O         0.0000000000         0.0000000000        35.6232244481      159.3946867492        1.9838733167
atom        15.1135000000       15.8020000000       16.7186000000 N         0.0000000000         0.0000000000      -184.9809936778     -108.1210418760     -157.0341914601
atom        15.0293000000       14.9890000000       14.1889000000 N         0.0000000000         0.0000000000      -180.4138618295       28.5638966474       -2.6933747311
atom        16.1750000000       16.3276000000       13.5881000000 N         0.0000000000         0.0000000000       253.3568108855     -219.5796466834       25.7344530986
atom        14.1950000000       15.8965000000       17.9343000000 N         0.0000000000         0.0000000000      -126.7615438547       79.3934965776       55.3858263600
energy     -2735.7124030465
charge 0
end
begin
comment generated by PY
lattice        30.0000000000         0.0000000000         0.0000000000
lattice         0.0000000000        30.0000000000         0.0000000000
lattice         0.0000000000         0.0000000000        30.0000000000
atom        13.3449000000       14.8496000000       15.6987000000 H         0.0000000000         0.0000000000       124.3932024387       66.0928941185      -24.1420915679
atom        18.2315000000       16.1843000000       13.2420000000 H         0.0000000000         0.0000000000       -94.7748269347      -48.8970060665       73.7033257125
atom        17.6339000000       14.5945000000       13.9204000000 H         0.0000000000         0.0000000000       -22.1730695128      102.2776736388       -3.0797459999
atom        12.8974000000       14.6141000000       18.5552000000 H         0.0000000000         0.0000000000        92.9948756333       30.0472866837      -61.1890691998
atom        13.1418000000       14.0280000000       13.2931000000 H         0.0000000000         0.0000000000       116.6990535793       73.6226481962        4.4608344530
atom        14.2753000000       14.7166000000       12.1355000000 H         0.0000000000         0.0000000000        11.7448578843       -8.9409162173      101.4944498628
atom        14.3073000000       15.4418000000       15.4988000000 C         0.0000000000         0.0000000000        25.7175893197       43.7497248237       65.0370818514
atom        17.4447000000       15.6237000000       13.7911000000 C         0.0000000000         0.0000000000      -229.6349519677       48.3579709745      -63.1897120389
atom        14.1155000000       14.5802000000       13.1461000000 C         0.0000000000         0.0000000000        66.1832441975       -0.0661041831      112.0509289679
atom        14.0674000000       16.7728000000       18.7971000000 O         0.0000000000         0.0000000000       -23.2755167519     -170.0330887788     -248.1270102243
atom        13.6954000000       14.6834000000       18.0275000000 O         0.0000000000         0.0000000000       -41.5098416002      156.9804358602        7.3282536059
atom        14.6503000000       16.3746000000       16.4216000000 N         0.0000000000         0.0000000000      -114.0185913156     -253.3087598242      -79.2339733311
atom        14.9993000000       14.8890000000       14.2079000000 N         0.0000000000         0.0000000000      -194.4957492621      111.5651246367      -31.4571275670
atom        16.2280000000       16.1017000000       13.8041000000 N         0.0000000000         0.0000000000       244.9379930219     -170.1303239940        6.3127334103
atom        13.9737000000       16.0314000000       17.7912000000 N         0.0000000000         0.0000000000        37.2114212704       18.6823940103      140.0312420650
energy     -2716.7895588912
charge 0
end
begin
comment generated by PY
lattice        30.0000000000         0.0000000000         0.0000000000
lattice         0.0000000000        30.0000000000         0.0000000000
lattice         0.0000000000         0.0000000000        30.0000000000
atom        13.7852000000       14.6309000000       15.9753000000 H         0.0000000000         0.0000000000        95.5429438485       39.2159690822      -48.0491741922
atom        17.7626000000       17.0315000000       13.5460000000 H         0.0000000000         0.0000000000       -80.6847201857      -74.8723963269        4.2345538683
atom        17.7064000000       15.2825000000       13.1400000000 H         0.0000000000         0.0000000000       -69.3089966928       91.1456196289       61.2666106533
atom        12.5636000000       15.2796000000       18.6445000000 H         0.0000000000         0.0000000000        66.7612950872       -7.4379106074     -109.4275230892
atom        13.0840000000       14.2002000000       13.5406000000 H         0.0000000000         0.0000000000       117.5523186575       43.5632958592      -24.1104587815
atom        14.3720000000       14.4248000000       12.1896000000 H         0.0000000000         0.0000000000       -20.5754483708       21.8092622011      125.2538703497
atom        14.7228000000       15.0256000000       15.6908000000 C         0.0000000000         0.0000000000        36.6849209382       24.0920159256       60.6501012904
atom        17.1560000000       16.1670000000       13.5794000000 C         0.0000000000         0.0000000000      -185.3840761589      -46.5082617000       39.2989410734
atom        14.0679000000       14.5808000000       13.2304000000 C         0.0000000000         0.0000000000        99.9383424740      -30.6080429709       96.3798495686
atom        14.1760000000       16.9783000000       18.4677000000 O         0.0000000000         0.0000000000        -2.5801483034     -272.0962285561     -162.0099318894
atom        12.9675000000       15.1206000000       17.7687000000 O         0.0000000000         0.0000000000       112.7732586067      108.4628437468       84.2761693960
atom        15.2508000000       15.6212000000       16.7795000000 N         0.0000000000         0.0000000000      -229.7484880474      -77.9100643692     -153.0232461955
atom        15.1553000000       14.7549000000       14.2765000000 N         0.0000000000         0.0000000000      -178.8258320357      132.1723913140       40.2884059819
atom        15.9404000000       16.1847000000       13.9886000000 N         0.0000000000         0.0000000000       263.4665070616      -77.7920699573      -69.6735501585
atom        14.1625000000       15.8586000000       17.7835000000 N         0.0000000000         0.0000000000       -25.6115668790      126.7636997904       54.6449482459
energy     -2726.2436566136
charge 0
end
begin
comment generated by PY
lattice        30.0000000000         0.0000000000         0.0000000000
lattice         0.0000000000        30.0000000000         0.0000000000
lattice         0.0000000000         0.0000000000        30.0000000000
atom        13.7895000000       14.5976000000       15.8314000000 H         0.0000000000         0.0000000000       119.8580627544       78.6506630406       -2.1433201892
atom        17.5048000000       17.3050000000       13.2921000000 H         0.0000000000         0.0000000000       -71.1822417774     -113.7922270007      -15.5646092160
atom        17.7452000000       15.5265000000       13.5260000000 H         0.0000000000         0.0000000000       -84.0214859629       68.7301897467       -1.8086064591
atom        12.1961000000       15.2682000000       18.2579000000 H         0.0000000000         0.0000000000        98.9159926013       65.2923015096      -92.6829999031
atom        13.4459000000       14.1790000000       13.7702000000 H         0.0000000000         0.0000000000        84.6194182203       -2.5567858460      -11.8539529053
atom        14.8239000000       13.4459000000       12.7770000000 H         0.0000000000         0.0000000000       -37.1228117560       86.6595563010       93.4263068914
atom        14.7334000000       15.2445000000       15.7575000000 C         0.0000000000         0.0000000000        43.1728733653       50.0908159195       -3.5549240152
atom        17.0255000000       16.2852000000       13.3691000000 C         0.0000000000         0.0000000000      -189.6245600602       -4.2413732391       46.3103999577
atom        14.4349000000       14.1282000000       13.5515000000 C         0.0000000000         0.0000000000       121.1675524724       35.2567057679       80.3179610579
atom        14.4797000000       16.0117000000       18.9885000000 O         0.0000000000         0.0000000000      -107.0393721108      -29.5491490295     -293.8310470098
atom        12.6958000000       15.7456000000       17.5195000000 O         0.0000000000         0.0000000000       118.0125583493      -32.8412368278       97.1080684420
atom        15.0536000000       16.1152000000       16.6432000000 N         0.0000000000         0.0000000000      -190.5254855148     -235.7650988549      -95.6679536172
atom        15.4316000000       14.8190000000       14.4532000000 N         0.0000000000         0.0000000000      -248.2716547233       39.1718071757      -36.8903275498
atom        15.7009000000       16.1492000000       13.4707000000 N         0.0000000000         0.0000000000       321.3871721514      -32.6332584520       70.6955759573
atom        14.0577000000       15.8633000000       17.7683000000 N         0.0000000000         0.0000000000        20.6545358699       27.5259967283      166.1390385585
energy     -2709.0201355989
charge 0
end
begin
comment generated by PY
lattice        30.0000000000         0.0000000000         0.0000000000
lattice         0.0000000000        30.0000000000         0.0000000000
lattice         0.0000000000         0.0000000000        30.0000000000
atom        13.5371000000       15.1835000000       15.5253000000 H         0.0000000000         0.0000000000       100.0127829295       21.3621627603       -3.7462515845
atom        17.2044000000       17.3829000000       12.7372000000 H         0.0000000000         0.0000000000       -41.8706290487      -98.8573230913       44.6911017103
atom        17.6727000000       15.7969000000       13.6824000000 H         0.0000000000         0.0000000000       -87.4192667228       74.4946334618      -61.8006842771
atom        12.3749000000       16.3793000000       18.5811000000 H         0.0000000000         0.0000000000        61.5218510168      -12.2429798038     -127.0321751792
atom        14.5592000000       12.8270000000       14.1266000000 H         0.0000000000         0.0000000000        51.2859881384      111.5521765850      -68.6184570506
atom        15.2402000000       13.5857000000       12.4388000000 H         0.0000000000         0.0000000000       -35.1077876358       27.5899013487      131.0497877901
atom        14.5438000000       15.4135000000       15.5922000000 C         0.0000000000         0.0000000000        50.7397967804      -16.5662300728      141.8938390289
atom        16.9085000000       16.4619000000       13.1968000000 C         0.0000000000         0.0000000000      -195.7563146792      -63.5140837451      101.0673295299
atom        14.9678000000       13.7057000000       13.5254000000 C         0.0000000000         0.0000000000        64.4247370971      122.3235021870      102.8737991628
atom        14.3741000000       15.8026000000       19.1255000000 O         0.0000000000         0.0000000000       -82.8250073599       10.4117355811     -291.2892062380
atom        12.7294000000       16.3210000000       17.6437000000 O         0.0000000000         0.0000000000       123.8843381456      -57.2673640179      141.4930275432
atom        15.0106000000       15.6841000000       16.7593000000 N         0.0000000000         0.0000000000      -187.5964236662      -41.5716478422     -162.0670213997
atom        15.3829000000       14.8406000000       14.2752000000 N         0.0000000000         0.0000000000      -115.4964894129      -63.2622907506      -63.9821849692
atom        15.6632000000       16.2341000000       13.4287000000 N         0.0000000000         0.0000000000       280.7658939676      -40.6576457187      -14.7554541642
atom        13.9979000000       15.7757000000       17.9117000000 N         0.0000000000         0.0000000000        13.4358073897       26.2056661791      130.2209731579
energy     -2739.7544121899
charge 0
end
begin
comment generated by PY
lattice        30.0000000000         0.0000000000         0.0000000000
lattice         0.0000000000        30.0000000000         0.0000000000
lattice         0.0000000000         0.0000000000        30.0000000000
atom        13.6658000000       14.4067000000       15.8715000000 H         0.0000000000         0.0000000000       119.2879155492       34.3047717270      -33.2825029518
atom        16.8403000000       17.6740000000       13.1690000000 H         0.0000000000         0.0000000000       -25.0639037102     -111.8272059551       52.9227185962
atom        17.5952000000       16.2690000000       14.0850000000 H         0.0000000000         0.0000000000       -90.7164382442       32.9165499825      -49.5222515927
atom        12.5931000000       17.0381000000       17.8599000000 H         0.0000000000         0.0000000000        28.7843733273      -68.0559786194      -27.9523800060
atom        13.9924000000       13.2172000000       13.4706000000 H         0.0000000000         0.0000000000        73.1213200714       67.2222481717        2.4618026130
atom        14.9961000000       13.9553000000       12.2951000000 H         0.0000000000         0.0000000000        -4.1061492063        9.9041632606      104.0851477562
atom        14.6794000000       14.7935000000       15.7146000000 C         0.0000000000         0.0000000000        28.8120554075      130.3894521178       73.2939955618
atom        16.7249000000       16.6877000000       13.6442000000 C         0.0000000000         0.0000000000      -195.6282172059      -72.9710012194       51.2455191690
atom        14.7659000000       13.8796000000       13.2992000000 C         0.0000000000         0.0000000000        66.5872157833       77.0990691419      125.5229030866
atom        14.5133000000       16.2035000000       18.9054000000 O         0.0000000000         0.0000000000       -81.1134082492      -62.7149037053     -257.5393645033
atom        12.7477000000       16.2332000000       17.4267000000 O         0.0000000000         0.0000000000       153.3383998292       11.5871229612       59.3509477026
atom        15.0665000000       15.5811000000       16.6718000000 N         0.0000000000         0.0000000000      -157.1659940881     -133.1389584133     -120.5840333505
atom        15.4300000000       14.6036000000       14.3300000000 N         0.0000000000         0.0000000000      -213.7185055247       -8.3702161149      -37.1577022127
atom        15.5322000000       16.2098000000       13.7925000000 N         0.0000000000         0.0000000000       288.7662644040       40.2474658742      -22.8193724823
atom        14.1250000000       15.8709000000       17.8096000000 N         0.0000000000         0.0000000000         8.8133657356       53.4085338512       79.9734187351
energy     -2776.2826540090
charge 0
end
begin
comment generated by PY
lattice        30.0000000000         0.0000000000         0.0000000000
lattice         0.0000000000        30.0000000000         0.0000000000
lattice         0.0000000000         0.0000000000        30.0000000000
atom        13.8832000000       14.5472000000       15.7907000000 H         0.0000000000         0.0000000000        84.6270569940      110.1404265695      -10.2911175225
atom        17.9120000000       16.5290000000       12.4214000000 H         0.0000000000         0.0000000000       -84.6196173962      -52.0852728153       57.4729334892
atom        17.4853000000       14.8302000000       12.8597000000 H         0.0000000000         0.0000000000       -43.3839615215      115.1980971648        8.5045613616
atom        12.1713000000       15.5632000000       18.2781000000 H         0.0000000000         0.0000000000       104.8411054964      -77.7390561134      -66.2234404503
atom        13.4537000000       13.7792000000       13.7693000000 H         0.0000000000         0.0000000000       107.8470332584       67.2939937641      -19.0987314287
atom        14.8310000000       13.9707000000       12.4859000000 H         0.0000000000         0.0000000000       -45.7588199910       39.2867439465      122.6975830879
atom        14.6132000000       15.4161000000       15.6807000000 C         0.0000000000         0.0000000000        38.0949656331      -40.7664124182       60.8433247705