begin
comment generated by PY
lattice        30.0000000000         0.0000000000         0.0000000000
lattice         0.0000000000        30.0000000000         0.0000000000
lattice         0.0000000000         0.0000000000        30.0000000000
atom        16.6432000000       16.7754000000       15.7253000000 H         0.0000000000         0.0000000000       -63.2827168948      -77.3743868348      -72.9757995148
atom        16.9039000000       16.0257000000       14.1812000000 H         0.0000000000         0.0000000000       -89.4944695410        6.8575424081       84.8568407738
atom        13.0295000000       16.0209000000       14.2087000000 H         0.0000000000         0.0000000000        90.6389224528        7.0775005445       83.5555734867
atom        13.3102000000       16.7712000000       15.7489000000 H         0.0000000000         0.0000000000        62.4086019419      -77.2085082410      -73.8613807817
atom        14.9663000000       13.7521000000       13.7504000000 H         0.0000000000         0.0000000000         0.9228431230       -7.8825366009      126.4792216221
atom        14.9777000000       12.5445000000       15.1396000000 H         0.0000000000         0.0000000000        -0.3219523495      127.9448340618      -23.5092298761
atom        13.8074000000       16.1402000000       14.9867000000 C         0.0000000000         0.0000000000        98.4794429214       33.9282749399      -51.5018763203
atom        16.1367000000       16.1431000000       14.9702000000 C         0.0000000000         0.0000000000       -99.2241973203       33.6762220555      -50.1077356488
atom        14.9743000000       13.5995000000       14.8373000000 C         0.0000000000         0.0000000000         0.4874053565      178.7250829839      104.8386395242
atom        14.9676000000       16.7892000000       14.4662000000 N         0.0000000000         0.0000000000         1.6154349115     -238.3944670948      184.0273906310
atom        15.7476000000       14.5842000000       15.7013000000 N         0.0000000000         0.0000000000      -186.7455145702        6.1042582714     -154.5938894813
atom        14.2108000000       14.5823000000       15.7122000000 N         0.0000000000         0.0000000000       184.5166919687        6.5462373853     -157.2077544147
energy     -2144.0378608820
charge 0
end
begin
comment generated by PY
lattice        30.0000000000         0.0000000000         0.0000000000
lattice         0.0000000000        30.0000000000         0.0000000000
lattice         0.0000000000         0.0000000000        30.0000000000
atom        16.3761000000       16.7939000000       16.0855000000 H         0.0000000000         0.0000000000       -40.2797303241      -83.2356843954      -86.1538924987
atom        17.0345000000       16.3989000000       14.6432000000 H         0.0000000000         0.0000000000      -103.3982673741      -39.5822809919       48.6363786589
atom        13.0988000000       15.9472000000       13.9956000000 H         0.0000000000         0.0000000000        75.8101861688       20.0914951254       91.0026107364
atom        13.2031000000       16.7567000000       15.5786000000 H         0.0000000000         0.0000000000        61.2335902073      -76.2029478332      -64.4458570354
atom        14.4621000000       13.4795000000       13.7678000000 H         0.0000000000         0.0000000000        28.7836365428       -2.0444071174      109.1113899943
atom        14.7115000000       12.3790000000       15.3124000000 H         0.0000000000         0.0000000000         1.3750551438      122.6606998190      -59.4206290198
atom        13.7537000000       16.1750000000       14.8485000000 C         0.0000000000         0.0000000000       135.6457442725       95.3212198756      -47.5233653448
atom        16.1277000000       16.1682000000       15.1906000000 C         0.0000000000         0.0000000000       -83.2782580445        7.8769382865      -28.7001871858
atom        14.6623000000       13.3849000000       14.8055000000 C         0.0000000000         0.0000000000         5.0155272779      127.2672091089      107.5695870056
atom        14.9465000000       16.8569000000       14.4968000000 N         0.0000000000         0.0000000000       -43.0281941858     -238.5887700356      162.7605858117
atom        15.9182000000       14.7173000000       15.5817000000 N         0.0000000000         0.0000000000      -172.8010977695      123.3730603064      -64.0964539910
atom        14.4502000000       14.5239000000       15.7130000000 N         0.0000000000         0.0000000000       134.9214942061      -56.9367821482     -168.7400140707
energy     -2073.4765846251
charge 0
end
begin
comment generated by PY
lattice        30.0000000000         0.0000000000         0.0000000000
lattice         0.0000000000        30.0000000000         0.0000000000
lattice         0.0000000000         0.0000000000        30.0000000000
atom        16.6932000000       16.9352000000       15.8520000000 H         0.0000000000         0.0000000000       -56.5245180342      -84.2650136863      -91.1259668074
atom        16.9743000000       16.1485000000       14.2103000000 H         0.0000000000         0.0000000000       -92.6410731280        5.3301347252       92.9844015902
atom        13.2002000000       15.9236000000       13.8928000000 H         0.0000000000         0.0000000000        80.5143226606       -2.1138685892       85.7907588893
atom        12.9561000000       16.5904000000       15.3541000000 H         0.0000000000         0.0000000000       102.8664423701      -58.5184053736      -37.6364099473
atom        13.8264000000       13.2241000000       13.9402000000 H         0.0000000000         0.0000000000        61.8503209436       21.7737887603       99.9423764405
atom        14.8166000000       12.2978000000       14.9488000000 H         0.0000000000         0.0000000000        -1.4619901971      100.1576640236        5.4351859975
atom        13.7952000000       16.0985000000       14.7998000000 C         0.0000000000         0.0000000000        85.6306335821      145.0102823600      -34.9895060039
atom        16.2190000000       16.2488000000       15.0432000000 C         0.0000000000         0.0000000000      -157.7106568190      -32.4756159456       58.6056028801
atom        14.5083000000       13.2693000000       14.7871000000 C         0.0000000000         0.0000000000       -72.1309348747      121.4731813481       75.1148688121
atom        14.9199000000       16.9022000000       14.6653000000 N         0.0000000000         0.0000000000       -17.4277322550     -257.0666483891       72.5516394039
atom        15.9492000000       14.9121000000       15.7499000000 N         0.0000000000         0.0000000000       -72.2509584956      108.5812721990      -89.3155873209
atom        14.4939000000       14.4249000000       15.6450000000 N         0.0000000000         0.0000000000       139.2863442472      -67.8858314324     -237.3579100553
energy     -2038.5298201461
charge 0
end
begin
comment generated by PY
lattice        30.0000000000         0.0000000000         0.0000000000
lattice         0.0000000000        30.0000000000         0.0000000000
lattice         0.0000000000         0.0000000000        30.0000000000
atom        16.1629000000       16.9677000000       15.9321000000 H         0.0000000000         0.0000000000       -19.0028403754      -92.4954707484      -90.1921596886
atom        17.0491000000       16.3447000000       14.5818000000 H         0.0000000000         0.0000000000      -123.7698174396      -33.0941118731       52.3897799642
atom        12.8055000000       17.0685000000       14.3830000000 H         0.0000000000         0.0000000000       110.5445079339      -37.8645522641       37.7898487613
atom        13.4193000000       15.9971000000       15.6826000000 H         0.0000000000         0.0000000000        51.5274878760       68.2083620813      -71.6648695386
atom        14.2308000000       13.5853000000       13.7933000000 H         0.0000000000         0.0000000000        50.2642067593      -16.5333885942       98.1405256807
atom        15.0633000000       12.2795000000       14.7705000000 H         0.0000000000         0.0000000000       -42.1263415261      113.8899804313        8.1562239211
atom        13.7056000000       16.6691000000       14.8648000000 C         0.0000000000         0.0000000000       168.1933076158      -69.0943081798      -99.5851407709
atom        16.0609000000       16.1973000000       15.1142000000 C         0.0000000000         0.0000000000       -92.1927688218       -1.5661568706       28.9233193858
atom        14.6665000000       13.3130000000       14.7397000000 C         0.0000000000         0.0000000000        19.9679184581      106.9333873363      119.3627987995
atom        14.8733000000       16.6507000000       14.3259000000 N         0.0000000000         0.0000000000      -120.6103272947      -29.0534894683      246.3847287045
atom        15.9404000000       14.8369000000       15.8135000000 N         0.0000000000         0.0000000000      -112.8125140350       80.3541146246     -141.9714195856
atom        14.6073000000       14.1885000000       15.7773000000 N         0.0000000000         0.0000000000       110.0177508496      -89.6850995356     -187.7333056333
energy     -2097.5978172386
charge 0
end
begin
comment generated by PY
lattice        30.0000000000         0.0000000000         0.0000000000
lattice         0.0000000000        30.0000000000         0.0000000000
lattice         0.0000000000         0.0000000000        30.0000000000
atom        14.7633000000       15.5480000000       16.8577000000 H         0.0000000000         0.0000000000        53.8549854067       40.2114822979     -113.6902130273
atom        16.0868000000       16.6044000000       16.3307000000 H         0.0000000000         0.0000000000       -97.0243179478      -76.2647562488      -55.6592141401
atom        13.7396000000       17.9819000000       13.6120000000 H         0.0000000000         0.0000000000        83.2443501724      -70.7255127382       72.4697583748
atom        15.4311000000       17.0880000000       13.7235000000 H         0.0000000000         0.0000000000      -105.5051523699       26.2970130409       47.1070958848
atom        15.2379000000       12.3911000000       16.3115000000 H         0.0000000000         0.0000000000        20.0452795051       66.6444653309     -101.7801383124
atom        16.1838000000       12.2511000000       14.6931000000 H         0.0000000000         0.0000000000       -79.0814079347       75.6112679469       72.0453057860
atom        14.4711000000       17.3555000000       14.1776000000 C         0.0000000000         0.0000000000       -46.5206039661      -89.9962224614      196.7250739681
atom        15.2313000000       15.9767000000       15.9544000000 C         0.0000000000         0.0000000000       -44.7720874361       10.4087456829      -55.4160589691
atom        15.4580000000       12.8470000000       15.3363000000 C         0.0000000000         0.0000000000       -39.7231902618      126.0853384659      -94.8673497697
atom        14.1635000000       16.8932000000       15.3689000000 N         0.0000000000         0.0000000000       216.1046147436       -2.5465091605     -235.0389006964
atom        15.7309000000       14.9142000000       14.9870000000 N         0.0000000000         0.0000000000      -151.2704218480      -42.4557112317      138.5439060484
atom        14.7088000000       13.8959000000       14.7473000000 N         0.0000000000         0.0000000000       190.6477519365      -63.2695978642      129.5601579136
energy     -2091.2289658112
charge 0
end
begin
comment generated by PY
lattice        30.0000000000         0.0000000000         0.0000000000
lattice         0.0000000000        30.0000000000         0.0000000000
lattice         0.0000000000         0.0000000000        30.0000000000
atom        14.4790000000       15.6411000000       16.8466000000 H         0.0000000000         0.0000000000        58.8284041303       47.9853858582     -108.0500296276
atom        15.8871000000       16.5501000000       16.6243000000 H         0.0000000000         0.0000000000       -87.0775012026      -45.9839511513      -83.2502671702
atom        13.7464000000       17.8729000000       13.3519000000 H         0.0000000000         0.0000000000        67.3150180238      -47.0181454909       77.4909684824
atom        15.1314000000       16.7778000000       13.2765000000 H         0.0000000000         0.0000000000       -67.5782623411       49.7413705567       84.5710187908
atom        15.1652000000       11.6931000000       15.1017000000 H         0.0000000000         0.0000000000        12.9991592881      127.4074019760      -43.0239615972
atom        16.1533000000       12.7607000000       13.9440000000 H         0.0000000000         0.0000000000       -75.5571333684       10.8466375967       91.2912511861
atom        14.4302000000       17.3006000000       13.9401000000 C         0.0000000000         0.0000000000       -43.8478246460      -70.1265188384      183.3668192843
atom        15.1040000000       16.0569000000       16.0312000000 C         0.0000000000         0.0000000000        16.2967809753      -58.8433272782      -13.5801826922
atom        15.4141000000       12.7270000000       14.7344000000 C         0.0000000000         0.0000000000       -75.1893215470      129.9837254979       82.8549385748
atom        14.2279000000       17.1133000000       15.2092000000 N         0.0000000000         0.0000000000       152.7451931293      -73.2284175159     -230.9542562704
atom        15.7832000000       14.8902000000       15.4045000000 N         0.0000000000         0.0000000000      -229.0133246519       31.8927927735       56.2217565806
atom        14.8369000000       13.8217000000       15.3139000000 N         0.0000000000         0.0000000000       270.0795122103     -102.6569041053      -96.9384086020
energy     -2154.8095861718
charge 0
end
begin
comment generated by PY
lattice        30.0000000000         0.0000000000         0.0000000000
lattice         0.0000000000        30.0000000000         0.0000000000
lattice         0.0000000000         0.0000000000        30.0000000000
atom        14.6118000000       15.7726000000       16.9600000000 H         0.0000000000         0.0000000000        62.1884546698       37.7317145413     -121.7302084957
atom        15.8953000000       16.8725000000       16.2924000000 H         0.0000000000         0.0000000000       -79.2270496047      -86.7286348788      -43.2796864088
atom        13.9729000000       17.6126000000       13.0913000000 H         0.0000000000         0.0000000000        41.5584061272      -33.5501611300       96.1211793446
atom        15.4496000000       17.8095000000       14.1331000000 H         0.0000000000         0.0000000000       -81.4911788602      -67.8227282622      -33.1923245268
atom        14.7796000000       11.9075000000       14.6280000000 H         0.0000000000         0.0000000000        26.7233793290      101.9080094197       19.6946756440
atom        15.2162000000       13.1591000000       13.5240000000 H         0.0000000000         0.0000000000         4.7844628201      -11.3214464674      120.0190392155
atom        14.5134000000       17.3120000000       13.9560000000 C         0.0000000000         0.0000000000       -67.5921355227      -25.9659514618      231.7893243590
atom        15.1761000000       16.0993000000       16.0030000000 C         0.0000000000         0.0000000000        21.0083103617      -64.2962429736        1.6207738945
atom        15.1113000000       12.8984000000       14.5731000000 C         0.0000000000         0.0000000000       -32.0972809062      150.5241553301      120.4590295110
atom        14.0016000000       16.7696000000       15.0180000000 N         0.0000000000         0.0000000000       230.2013448777       30.7762831337     -198.1164793409
atom        15.9213000000       14.9553000000       15.5159000000 N         0.0000000000         0.0000000000      -244.7852397312       29.1921191959       59.9920615568
atom        15.0971000000       13.7757000000       15.5796000000 N         0.0000000000         0.0000000000       118.7290264393      -60.4472395073     -253.3781016928
energy     -2160.2581871672
charge 0
end
begin
comment generated by PY
lattice        30.0000000000         0.0000000000         0.0000000000
lattice         0.0000000000        30.0000000000         0.0000000000
lattice         0.0000000000         0.0000000000        30.0000000000
atom        14.5994000000       15.5317000000       17.0071000000 H         0.0000000000         0.0000000000        49.4464512616       61.6520368141     -117.6536377948
atom        15.7845000000       16.7168000000       16.6159000000 H         0.0000000000         0.0000000000       -52.2195196104      -66.9863126985      -71.0044414055
atom        13.5514000000       17.7283000000       13.4120000000 H         0.0000000000         0.0000000000        90.3432973371      -50.3505915468       81.8221438520
atom        15.3434000000       17.1259000000       13.6137000000 H         0.0000000000         0.0000000000      -106.6565774837        6.6054112895       41.0131068340
atom        14.6738000000       11.9279000000       14.3827000000 H         0.0000000000         0.0000000000        51.0181607897       98.9730359000       85.1781106109
atom        15.3801000000       12.3472000000       16.0804000000 H         0.0000000000         0.0000000000       -26.9211145995       45.1634246373      -93.0782009823
atom        14.3542000000       17.2581000000       14.0421000000 C         0.0000000000         0.0000000000       -20.0299914697      -61.2536476490      202.8179134141
atom        15.1567000000       16.0607000000       16.0878000000 C         0.0000000000         0.0000000000       -20.2669895952      -76.2893842302      -54.6359738259
atom        15.0878000000       12.6901000000       15.1250000000 C         0.0000000000         0.0000000000        24.4640518692      197.2395653310     -102.7273862447
atom        14.1139000000       16.9105000000       15.2479000000 N         0.0000000000         0.0000000000       156.8082202349      -14.6476760752     -205.9711673241
atom        15.8890000000       15.0265000000       15.3923000000 N         0.0000000000         0.0000000000      -172.0561056554       11.0966925165       14.4499914802
atom        15.2329000000       13.9471000000       14.6759000000 N         0.0000000000         0.0000000000        26.0701169214     -151.2020942888      219.7898413861
energy     -2162.0620262901
charge 0
end
begin
comment generated by PY
lattice        30.0000000000         0.0000000000         0.0000000000
lattice         0.0000000000        30.0000000000         0.0000000000
lattice         0.0000000000         0.0000000000        30.0000000000
atom        14.1407000000       15.5430000000       16.5597000000 H         0.0000000000         0.0000000000       105.9795792530       46.6008772647      -93.1066419253
atom        15.5026000000       16.6201000000       16.5568000000 H         0.0000000000         0.0000000000       -50.0288368374      -56.9374618674      -81.9942107158
atom        13.8122000000       17.8125000000       13.1787000000 H         0.0000000000         0.0000000000        55.8432622191       -6.3300821603      103.8499030499
atom        15.5185000000       17.9347000000       13.9155000000 H         0.0000000000         0.0000000000      -112.8891418207      -32.2977438483        9.3639488166
atom        14.2266000000       12.2861000000       14.5140000000 H         0.0000000000         0.0000000000       113.8482676186       28.1632952733       43.3779754003
atom        15.9583000000       12.7511000000       13.8761000000 H         0.0000000000         0.0000000000       -86.0682247142       -0.7704669240       99.5855471856
atom        14.4564000000       17.6347000000       14.0258000000 C         0.0000000000         0.0000000000        -4.4484192865     -166.7115410524      137.0072685762
atom        14.9549000000       16.0197000000       15.8668000000 C         0.0000000000         0.0000000000       -38.6776916804      -11.9083256842       31.7274998344
atom        15.2036000000       12.7065000000       14.7263000000 C         0.0000000000         0.0000000000       -27.3101650133      232.7834975678       62.1423669093
atom        14.1011000000       16.8528000000       14.9536000000 N         0.0000000000         0.0000000000       188.2860655908       60.1613274305     -138.6966554276
atom        15.9985000000       14.8827000000       15.5068000000 N         0.0000000000         0.0000000000      -243.2638705821      -23.9827394892       38.0503763101
atom        15.1347000000       13.7346000000       15.5806000000 N         0.0000000000         0.0000000000        98.7293521926      -68.7702695710     -211.3063388320
energy     -2146.4149221193
charge 0
end
begin
comment generated by PY
lattice        30.0000000000         0.0000000000         0.0000000000
lattice         0.0000000000        30.0000000000         0.0000000000
lattice         0.0000000000         0.0000000000        30.0000000000
atom        14.3983000000       15.7318000000       17.0409000000 H         0.0000000000         0.0000000000        66.1736855326       44.0573881673     -111.5527243990
atom        15.7049000000       16.8427000000       16.7640000000 H         0.0000000000         0.0000000000       -59.3440481609      -97.4172528098      -75.3941921284
atom        13.7946000000       17.4458000000       13.2077000000 H         0.0000000000         0.0000000000        46.2860334905      -58.2077842451       96.7246040931
atom        14.9049000000       16.0778000000       13.5710000000 H         0.0000000000         0.0000000000       -67.3870355777       57.4126971057       43.4441294701
atom        14.9691000000       12.2487000000       13.8760000000 H         0.0000000000         0.0000000000        38.3955032089       77.3593319886       88.1447094298
atom        15.7148000000       12.2349000000       15.4794000000 H         0.0000000000         0.0000000000       -19.5405232982       72.5916914424      -66.7136930260
atom        14.2773000000       16.8230000000       13.9551000000 C         0.0000000000         0.0000000000        55.0054559031       48.6791851192      223.9101906147
atom        15.0735000000       16.1030000000       16.2001000000 C         0.0000000000         0.0000000000         0.9747314615       -4.8424767557      -43.8476993403
atom        15.3688000000       12.8294000000       14.7026000000 C         0.0000000000         0.0000000000      -117.0632280534      169.1853767089       16.5670432493
atom        14.3279000000       17.0876000000       15.2606000000 N         0.0000000000         0.0000000000        57.9149185764     -194.0727064181     -221.9154894149
atom        15.8087000000       14.9392000000       15.6417000000 N         0.0000000000         0.0000000000      -223.8791016115       56.7453827523      -32.9919078007
atom        14.9845000000       14.1318000000       14.8381000000 N         0.0000000000         0.0000000000       222.4639085287     -171.4898099952       83.6247723129
energy     -2170.9042153829
charge 0
end
begin
comment generated by PY
lattice        30.0000000000         0.0000000000         0.0000000000
lattice         0.0000000000        30.0000000000         0.0000000000
lattice         0.0000000000         0.0000000000        30.0000000000
atom        13.3492000000       15.7425000000       15.1255000000 H         0.0000000000         0.0000000000       108.7618526377       -5.8979246156        4.7973818713
atom        14.2519000000       15.4532000000       16.4308000000 H         0.0000000000         0.0000000000        34.4871429068       38.4705902381     -108.5554300505
atom        14.4360000000       19.1113000000       14.4664000000 H         0.0000000000         0.0000000000        -2.2371254919     -108.5653329818       -8.2011683838
atom        13.3926000000       17.8231000000       13.7395000000 H         0.0000000000         0.0000000000        94.0271523918       16.3269666208       69.9743795661
atom        15.7961000000       11.5287000000       15.8717000000 H         0.0000000000         0.0000000000         0.8455282483      121.0026765814      -52.4283667577
atom        16.4493000000       12.3808000000       14.3369000000 H         0.0000000000         0.0000000000       -67.8027678796       15.0490952624      104.5670117140
atom        14.2522000000       18.0722000000       14.3840000000 C         0.0000000000         0.0000000000        64.7378229575     -153.2334057274      159.1241442636
atom        14.3718000000       15.7434000000       15.4021000000 C         0.0000000000         0.0000000000        63.1688468318       -6.2005801731      -39.3880268188
atom        15.8699000000       12.4671000000       15.2927000000 C         0.0000000000         0.0000000000       -52.4614590185      179.0745975285       -3.8267913364
atom        14.8681000000       17.2435000000       15.2011000000 N         0.0000000000         0.0000000000      -210.8977622374       40.7958782246     -173.3413206420
atom        15.2486000000       14.7129000000       14.7163000000 N         0.0000000000         0.0000000000      -110.9913709827       -5.6989696317      202.2673149966
atom        15.3274000000       13.6457000000       15.6313000000 N         0.0000000000         0.0000000000        78.3628765756     -131.1236933867     -154.9898853620
energy     -2160.5384111937
charge 0
end
begin
comment generated by PY
lattice        30.0000000000         0.0000000000         0.0000000000
lattice         0.0000000000        30.0000000000         0.0000000000
lattice         0.0000000000         0.0000000000        30.0000000000
atom        12.9940000000       15.5244000000       14.1457000000 H         0.0000000000         0.0000000000       124.7187182046       27.3725915696       60.5618212677
atom        13.5964000000       15.6818000000       15.8434000000 H         0.0000000000         0.0000000000        55.7222797436       -9.9996753825     -125.0752189285
atom        15.2253000000       18.7181000000       15.3417000000 H         0.0000000000         0.0000000000       -31.2053620400     -124.6025704243       13.0922231491
atom        14.8187000000       17.2959000000       16.5218000000 H         0.0000000000         0.0000000000         0.4003462660       34.5648711120     -111.1015065171
atom        16.9022000000       12.8334000000       16.5889000000 H         0.0000000000         0.0000000000      -104.0340194649       44.5367891548      -65.8729626309
atom        15.5941000000       12.1469000000       15.6082000000 H         0.0000000000         0.0000000000        18.8311342623       88.3486269744       36.6213542627
atom        14.9010000000       17.6616000000       15.4941000000 C         0.0000000000         0.0000000000       -32.2656297184     -109.0410455718     -174.3717889116
atom        13.9660000000       15.6570000000       14.7335000000 C         0.0000000000         0.0000000000        30.6938898688      -24.9064153317       -6.7517841044
atom        15.9941000000       13.0243000000       15.9916000000 C         0.0000000000         0.0000000000        -9.9213482418      171.4492342280     -135.4587835445
atom        14.6634000000       16.9467000000       14.4553000000 N         0.0000000000         0.0000000000       -44.4645384755        7.0628022451      295.4479915419
atom        14.6859000000       14.3590000000       14.3951000000 N         0.0000000000         0.0000000000        53.4985002398      156.8575346930      201.7560811805
atom        15.6759000000       14.2332000000       15.4284000000 N         0.0000000000         0.0000000000       -61.9739006444     -261.6422763271       11.1535732349
energy     -2163.8764845464
charge 0
end
begin
comment generated by PY
lattice        30.0000000000         0.0000000000         0.0000000000
lattice         0.0000000000        30.0000000000         0.0000000000
lattice         0.0000000000         0.0000000000        30.0000000000
atom        13.1488000000       15.9216000000       13.7526000000 H         0.0000000000         0.0000000000        86.0501355673      -49.0186780448       95.5470476159
atom        13.2756000000       15.6625000000       15.5034000000 H         0.0000000000         0.0000000000        75.9185188979        1.2272863933      -99.3048151526
atom        15.6923000000       18.3415000000       15.5975000000 H         0.0000000000         0.0000000000       -35.0953397653     -116.4305794666      -14.3748868271
atom        15.5430000000       16.6312000000       16.3739000000 H         0.0000000000         0.0000000000       -28.7430450762       70.3148622177      -94.9514620444
atom        16.6937000000       13.2711000000       16.8376000000 H         0.0000000000         0.0000000000       -39.6314493233       61.0019962629     -101.9518787104
atom        17.2380000000       13.5073000000       15.1453000000 H         0.0000000000         0.0000000000       -96.7007155862       48.9306674056       66.4066499456
atom        15.3326000000       17.3087000000       15.5288000000 C         0.0000000000         0.0000000000      -123.6940940673      -39.9077974166     -160.3273860734
atom        13.8608000000       15.6964000000       14.5836000000 C         0.0000000000         0.0000000000         8.2427825419       24.4756223499      -32.6978214730
atom        16.4456000000       13.7518000000       15.8798000000 C         0.0000000000         0.0000000000      -212.8917874568      -94.3819711040      -31.7224296645
atom        14.6125000000       17.0036000000       14.4911000000 N         0.0000000000         0.0000000000        97.4549030201      -99.2608157404      292.4149300711