begin
comment generated by PY
lattice        30.0000000000         0.0000000000         0.0000000000
lattice         0.0000000000        30.0000000000         0.0000000000
lattice         0.0000000000         0.0000000000        30.0000000000
atom        13.3023000000       14.6043000000       15.6528000000 H         0.0000000000         0.0000000000        22.0037952520        6.1576670434     -124.2459776226
atom        12.4476000000       15.0225000000       14.1997000000 H         0.0000000000         0.0000000000       122.8877005174      -41.5485692426       33.4038551102
atom        16.7022000000       16.0058000000       14.2635000000 H         0.0000000000         0.0000000000       -93.3867039835      -89.7828355000       30.5407598724
atom        16.0735000000       15.2457000000       15.6952000000 H         0.0000000000         0.0000000000       -19.4609384355       -1.6243230816     -124.9805849943
atom        15.2516000000       12.5328000000       15.3477000000 H         0.0000000000         0.0000000000        -7.9144064675       41.2097100003     -120.4123794535
atom        15.4173000000       11.9218000000       13.7285000000 H         0.0000000000         0.0000000000       -28.5983835731      118.4576273739       61.4960848565
atom        13.4341000000       14.6814000000       14.5586000000 C         0.0000000000         0.0000000000        -0.4959235457      -19.7572328621       22.8559647159
atom        15.9547000000       15.2658000000       14.5969000000 C         0.0000000000         0.0000000000         9.4356671576      -28.1042078297       21.4943729267
atom        15.1941000000       12.8479000000       14.2887000000 C         0.0000000000         0.0000000000         1.6502770333       -4.5953665443       28.6078922825
atom        11.5646000000       12.5643000000       15.1023000000 O         0.0000000000         0.0000000000       301.6129956175      -81.0737744065     -133.6238654580
atom        18.5469000000       14.2011000000       15.2098000000 O         0.0000000000         0.0000000000      -228.5941630286     -206.4093916006     -141.6985644581
atom        13.1136000000       10.9608000000       14.8178000000 O         0.0000000000         0.0000000000       -88.3108492342      322.8004193378      -61.6399398010
atom        17.8882000000       12.0759000000       14.8901000000 O         0.0000000000         0.0000000000       -62.8763929861      327.9297173191      -60.5475455607
atom        14.2372000000       16.8525000000       15.2398000000 O         0.0000000000         0.0000000000        54.9275841551     -124.3468252431     -155.9915865565
atom        14.4569000000       19.4429000000       14.4040000000 O         0.0000000000         0.0000000000       211.8350373941     -329.8371574244      150.3541053943
atom        15.1277000000       18.4891000000       14.8390000000 N         0.0000000000         0.0000000000      -228.3530512357      272.5501130691     -140.1606493591
atom        14.4937000000       15.8486000000       14.3205000000 N         0.0000000000         0.0000000000        19.3906662421      -76.0303392293      173.0252383144
atom        13.7120000000       13.2553000000       14.0209000000 N         0.0000000000         0.0000000000        99.0545718387       78.5894044105      120.2665647725
atom        16.3513000000       13.8668000000       14.0596000000 N         0.0000000000         0.0000000000      -124.5791377078       28.6112449128      118.7282461643
atom        12.7065000000       12.1713000000       14.6580000000 N         0.0000000000         0.0000000000      -100.1371936883     -124.5737262261      150.1520283730
atom        17.7159000000       13.3415000000       14.7336000000 N         0.0000000000         0.0000000000       139.9088786780      -68.6220236371      152.3763974204
energy     -3991.0954005827
charge 0
end
begin
comment generated by PY
lattice        30.0000000000         0.0000000000         0.0000000000
lattice         0.0000000000        30.0000000000         0.0000000000
lattice         0.0000000000         0.0000000000        30.0000000000
atom        13.1386000000       14.5906000000       15.6245000000 H         0.0000000000         0.0000000000        38.2025163045        4.9325077501     -135.4261211215
atom        12.2653000000       14.7547000000       14.0437000000 H         0.0000000000         0.0000000000       141.6384284247      -16.8327447067       42.4092374255
atom        16.4535000000       16.0166000000       13.9543000000 H         0.0000000000         0.0000000000       -64.7234489747      -76.3828309606       73.7880848470
atom        15.8659000000       15.4428000000       15.6064000000 H         0.0000000000         0.0000000000        -3.8943446150       -4.8513527286     -119.5746971117
atom        15.2408000000       12.4739000000       15.4579000000 H         0.0000000000         0.0000000000        -8.5717901457       54.5839748655     -105.2597885000
atom        15.5390000000       11.8293000000       14.0708000000 H         0.0000000000         0.0000000000       -42.6072050300      121.4288229753       14.3315312610
atom        13.3525000000       14.5921000000       14.4642000000 C         0.0000000000         0.0000000000       -46.3667245828      -45.1037669050       27.6077162751
atom        15.8479000000       15.3349000000       14.5296000000 C         0.0000000000         0.0000000000         1.8574246452      -58.7475910706      -27.1371308327
atom        15.1954000000       12.7971000000       14.4233000000 C         0.0000000000         0.0000000000        -8.3615979757        1.5999409061       59.5019714605
atom        11.4045000000       12.2594000000       14.4234000000 O         0.0000000000         0.0000000000       339.2055503236      -59.2869467011       47.8584823147
atom        18.8137000000       14.0731000000       14.2990000000 O         0.0000000000         0.0000000000      -298.1510623771     -151.7569506716       56.4489138087
atom        13.1601000000       11.1244000000       15.4122000000 O         0.0000000000         0.0000000000      -125.7866979721      228.7733497082     -216.1372056638
atom        17.8031000000       12.5769000000       15.5787000000 O         0.0000000000         0.0000000000       -45.3849660342      199.4380575510     -256.9855922737
atom        13.8924000000       16.8593000000       14.8222000000 O         0.0000000000         0.0000000000        95.9882042811     -147.5536167890     -119.3956950875
atom        15.0441000000       19.5553000000       15.1576000000 O         0.0000000000         0.0000000000        57.1410871822     -415.7531122377      -48.0557781253
atom        15.2750000000       18.3371000000       15.0070000000 N         0.0000000000         0.0000000000       -77.3637242983      364.3812300751       40.1042647007
atom        14.3088000000       15.8221000000       14.0922000000 N         0.0000000000         0.0000000000       -25.2640363366      -46.3134463030      195.0677759771
atom        13.7062000000       13.1123000000       14.1008000000 N         0.0000000000         0.0000000000        98.3219716772       83.9979452893       83.5319157764
atom        16.2792000000       13.9254000000       14.1526000000 N         0.0000000000         0.0000000000      -121.3102004975        9.5691286659       75.7902695118
atom        12.6601000000       12.0225000000       14.6462000000 N         0.0000000000         0.0000000000       -96.2247369056      -51.0017302585      135.3306178346
atom        17.7326000000       13.4291000000       14.6319000000 N         0.0000000000         0.0000000000       191.6554729069        4.8787746066      176.2003383416
energy     -3945.7498018105
charge 0
end
begin
comment generated by PY
lattice        30.0000000000         0.0000000000         0.0000000000
lattice         0.0000000000        30.0000000000         0.0000000000
lattice         0.0000000000         0.0000000000        30.0000000000
atom        13.0408000000       14.4867000000       15.5963000000 H         0.0000000000         0.0000000000        64.3222795416       18.0962518108     -117.3908600753
atom        12.3444000000       14.9391000000       14.2205000000 H         0.0000000000         0.0000000000       121.0203255394      -42.2571763429        5.3521377853
atom        16.4982000000       16.2626000000       13.9055000000 H         0.0000000000         0.0000000000       -72.1054062274     -114.6168606476       51.2953132686
atom        15.9998000000       15.3980000000       15.5429000000 H         0.0000000000         0.0000000000       -10.8459846363       -1.6666295410     -142.7441823298
atom        15.2434000000       12.6705000000       15.3111000000 H         0.0000000000         0.0000000000         2.4655423731       21.4748755934     -122.5931482025
atom        15.4825000000       11.7813000000       13.8474000000 H         0.0000000000         0.0000000000       -32.0851337484      135.8481322555       24.8367404829
atom        13.3420000000       14.5960000000       14.5017000000 C         0.0000000000         0.0000000000       -30.7505943822      -40.8321885237       28.4684355269
atom        15.8801000000       15.3810000000       14.3572000000 C         0.0000000000         0.0000000000       -48.2885943276      -26.9898804484       45.6504864410
atom        15.2153000000       12.8131000000       14.2170000000 C         0.0000000000         0.0000000000       -26.4141226556       23.7086446638       97.4118651442
atom        11.5295000000       11.7887000000       14.1054000000 O         0.0000000000         0.0000000000       292.0345360669      114.9250385914      153.7973986640
atom        18.7720000000       13.6131000000       14.0042000000 O         0.0000000000         0.0000000000      -317.8313598616        8.3134377063      149.4283882578
atom        13.0690000000       11.4745000000       15.7446000000 O         0.0000000000         0.0000000000      -110.3470076722      171.6501786643     -260.2413603740
atom        17.5752000000       13.4610000000       15.9082000000 O         0.0000000000         0.0000000000        15.7411516944       40.5568977705     -330.2938755797
atom        14.0053000000       16.8828000000       14.8881000000 O         0.0000000000         0.0000000000       117.7998384332     -133.2718770545     -105.8854346436
atom        15.0847000000       19.1139000000       15.1089000000 O         0.0000000000         0.0000000000       110.7743070184     -356.6844457143      140.6639791370
atom        15.4337000000       18.0194000000       15.5119000000 N         0.0000000000         0.0000000000      -155.7595476002      309.5716769985     -164.5238962450
atom        14.3917000000       15.8211000000       14.1392000000 N         0.0000000000         0.0000000000         2.9256249848      -52.7256375503      169.9562568710
atom        13.6343000000       13.1272000000       14.0068000000 N         0.0000000000         0.0000000000        73.7294656428      107.9700807958       71.0016632322
atom        16.2779000000       13.9685000000       13.8761000000 N         0.0000000000         0.0000000000      -101.1117505383       34.1303433365       89.7363096676
atom        12.6072000000       12.1246000000       14.7117000000 N         0.0000000000         0.0000000000       -64.4417064641     -197.0179285089       67.7884563665
atom        17.6679000000       13.6312000000       14.6256000000 N         0.0000000000         0.0000000000       169.1672837588      -20.1824969157      148.2863535443
energy     -3930.8450367545
charge 0
end
begin
comment generated by PY
lattice        30.0000000000         0.0000000000         0.0000000000
lattice         0.0000000000        30.0000000000         0.0000000000
lattice         0.0000000000         0.0000000000        30.0000000000
atom        12.9688000000       14.4368000000       15.6789000000 H         0.0000000000         0.0000000000        58.0984594470       15.3584466108     -109.5663202690
atom        12.2483000000       14.6643000000       14.2080000000 H         0.0000000000         0.0000000000       126.7651602391        8.5863047106       39.6842597538
atom        16.3446000000       16.2052000000       14.6402000000 H         0.0000000000         0.0000000000       -76.3158362400      -99.9019919714       27.5632730148
atom        15.5837000000       15.0985000000       15.9890000000 H         0.0000000000         0.0000000000        12.1113675326       37.2106968412     -136.9126392526
atom        15.1856000000       12.7334000000       15.3404000000 H         0.0000000000         0.0000000000         0.8954236985       26.3828240035     -121.1750061867
atom        15.6833000000       12.1363000000       13.7093000000 H         0.0000000000         0.0000000000       -68.7243471089      105.4428180842       62.7562028136
atom        13.2736000000       14.5907000000       14.6364000000 C         0.0000000000         0.0000000000       -62.3625795734      -50.7624962186      -20.6606678654
atom        15.6953000000       15.3501000000       14.8473000000 C         0.0000000000         0.0000000000        34.0967512057      -54.3640984994       28.0440845541
atom        15.2056000000       12.9892000000       14.2702000000 C         0.0000000000         0.0000000000        31.9009580540        8.5952978103       53.4551798467
atom        11.8355000000       11.5538000000       13.7065000000 O         0.0000000000         0.0000000000       267.9297466770      148.4612627878      171.3867330081
atom        18.3027000000       12.6277000000       13.8776000000 O         0.0000000000         0.0000000000      -188.1697282979      235.4336681974      165.9439111531
atom        13.0133000000       11.5494000000       15.6169000000 O         0.0000000000         0.0000000000       -33.8722106164      134.7470613291     -302.8347158450
atom        18.1608000000       13.8734000000       15.7302000000 O         0.0000000000         0.0000000000      -129.0865384309      -73.6931270953     -293.2054903649
atom        13.9072000000       16.7964000000       15.5221000000 O         0.0000000000         0.0000000000        77.0170692799     -116.0509230538     -202.8891026548
atom        15.4946000000       19.2959000000       14.6092000000 O         0.0000000000         0.0000000000      -211.5105923150     -293.8899887957      226.0245057747
atom        14.8640000000       18.4806000000       15.3629000000 N         0.0000000000         0.0000000000       181.5692995944      259.9142341042     -198.0760748099
atom        14.1695000000       15.9352000000       14.4590000000 N         0.0000000000         0.0000000000        12.6821975164     -108.0916476628      203.8601689520
atom        13.6809000000       13.2616000000       13.9373000000 N         0.0000000000         0.0000000000       109.2172062535       80.0520141084      111.2967070531
atom        16.2940000000       14.1049000000       14.2131000000 N         0.0000000000         0.0000000000      -159.4129047858       -9.8193564015       60.6819244152
atom        12.8089000000       12.0341000000       14.4395000000 N         0.0000000000         0.0000000000      -142.2112992303     -162.5080563594      117.6361893859
atom        17.6885000000       13.5027000000       14.5927000000 N         0.0000000000         0.0000000000       159.3833886609      -91.1029525295      116.9885544626
energy     -3909.1438192406
charge 0
end
begin
comment generated by PY
lattice        30.0000000000         0.0000000000         0.0000000000
lattice         0.0000000000        30.0000000000         0.0000000000
lattice         0.0000000000         0.0000000000        30.0000000000
atom        13.4212000000       14.2235000000       15.7813000000 H         0.0000000000         0.0000000000        25.5628779250       52.9228850337      -98.1634507543
atom        12.4723000000       15.0153000000       14.7185000000 H         0.0000000000         0.0000000000       120.5260355194      -51.2696524202      -16.5929146168
atom        16.6337000000       16.1685000000       14.5660000000 H         0.0000000000         0.0000000000       -80.7552440100     -116.6120632512       33.8622045519
atom        16.0720000000       14.9273000000       15.9343000000 H         0.0000000000         0.0000000000       -16.6651473883       57.2951320850     -126.9921443497
atom        15.3721000000       12.3040000000       15.0206000000 H         0.0000000000         0.0000000000         0.0757850682       59.3431412030     -100.0020286847
atom        15.5097000000       12.0570000000       13.3167000000 H         0.0000000000         0.0000000000       -19.8407528473      102.6077257135       78.8755369864
atom        13.4950000000       14.6167000000       14.7852000000 C         0.0000000000         0.0000000000        -9.5281543337      -40.2093734046       47.9460795306
atom        15.9488000000       15.2988000000       14.8547000000 C         0.0000000000         0.0000000000       -13.2573351363      -44.9116818395       22.5777538098
atom        15.3378000000       12.8213000000       14.0770000000 C         0.0000000000         0.0000000000       -13.8274767359       47.0242620005       64.8600370358
atom        11.7958000000       11.8833000000       13.4702000000 O         0.0000000000         0.0000000000       277.9931066339       75.5258140785      188.5188881647
atom        17.9295000000       12.2542000000       14.7996000000 O         0.0000000000         0.0000000000       -46.7672174920      328.9186208450      -19.3753664872
atom        12.6329000000       11.6468000000       15.4976000000 O         0.0000000000         0.0000000000        62.2033385804      121.4753130855     -296.1274733934
atom        18.7534000000       14.3820000000       14.8011000000 O         0.0000000000         0.0000000000      -272.1127014402     -211.7162361844      -19.7555272246
atom        14.1174000000       16.6350000000       15.8717000000 O         0.0000000000         0.0000000000        63.8204657463      -77.5445994081     -207.9892350553
atom        15.0607000000       18.9420000000       14.4952000000 O         0.0000000000         0.0000000000      -277.1364091592     -112.6509986079      293.1804181186
atom        14.2549000000       18.6519000000       15.3667000000 N         0.0000000000         0.0000000000       267.9233967096       53.7201707320     -274.0134349283
atom        14.4390000000       15.8872000000       14.7287000000 N         0.0000000000         0.0000000000        13.5220063446     -131.6815475889      174.8680687024
atom        13.7675000000       13.3314000000       13.9931000000 N         0.0000000000         0.0000000000        89.4013861554       59.5774504376       55.9602786542
atom        16.3677000000       13.9576000000       14.1032000000 N         0.0000000000         0.0000000000       -90.2717784469        0.9704198603      100.4766677246
atom        12.7526000000       12.1199000000       14.2895000000 N         0.0000000000         0.0000000000      -246.1593308888      -80.3015107833      113.4652113888
atom        17.7834000000       13.5247000000       14.7167000000 N         0.0000000000         0.0000000000       165.2933830748      -92.4835946470      -15.5786061128
energy     -3942.5575705100
charge 0
end
begin
comment generated by PY
lattice        30.0000000000         0.0000000000         0.0000000000
lattice         0.0000000000        30.0000000000         0.0000000000
lattice         0.0000000000         0.0000000000        30.0000000000
atom        13.3858000000       14.3881000000       15.7534000000 H         0.0000000000         0.0000000000        17.0869399280       23.1901795670     -101.1241153744
atom        12.4576000000       15.0281000000       14.5488000000 H         0.0000000000         0.0000000000       108.8597088156      -32.6966808825        2.4426827866
atom        16.7616000000       16.1678000000       14.8540000000 H         0.0000000000         0.0000000000       -82.3034703651     -118.8642100511       -7.5924836585
atom        16.1870000000       15.0126000000       15.9988000000 H         0.0000000000         0.0000000000       -26.4654883092       12.9890547286     -118.0446144924
atom        15.2555000000       12.2933000000       14.8171000000 H         0.0000000000         0.0000000000         7.9853742155       95.8241728822      -93.7531415480
atom        15.5734000000       12.2765000000       13.1847000000 H         0.0000000000         0.0000000000       -41.8952152074      100.9913305337       68.4101159706
atom        13.4312000000       14.6717000000       14.7443000000 C         0.0000000000         0.0000000000        38.1187712200      -46.6549518004        1.8617185568
atom        16.0710000000       15.2372000000       14.9391000000 C         0.0000000000         0.0000000000         2.3432204267       -2.2544457729       -5.8653845339
atom        15.2723000000       13.0093000000       13.9282000000 C         0.0000000000         0.0000000000        -4.7049796317      -43.3077644762       78.5798220532
atom        11.9812000000       11.7072000000       13.3686000000 O         0.0000000000         0.0000000000       229.6012641592      138.8069907837      232.5109555481
atom        17.5443000000       12.5355000000       15.6461000000 O         0.0000000000         0.0000000000        57.1393191825      232.2160759266     -231.6666211427
atom        12.8556000000       11.7388000000       15.4849000000 O         0.0000000000         0.0000000000        -5.4248013299      120.2681371965     -316.0939577366
atom        18.8809000000       13.5508000000       14.1144000000 O         0.0000000000         0.0000000000      -309.8243342071      -13.9925711036      160.4096912511
atom        14.3159000000       16.6561000000       15.8257000000 O         0.0000000000         0.0000000000        50.4083830296      -85.2129575608     -219.9075335006
atom        14.2302000000       19.3914000000       14.6876000000 O         0.0000000000         0.0000000000       102.6341697156     -321.0984618156      245.7978510811
atom        14.5735000000       18.5024000000       15.4906000000 N         0.0000000000         0.0000000000      -100.8794571441      280.7810448835     -214.8122886541
atom        14.5660000000       15.9240000000       14.7149000000 N         0.0000000000         0.0000000000        -6.6205691534      -98.3088923075      193.2052719450
atom        13.7539000000       13.4033000000       13.8332000000 N         0.0000000000         0.0000000000        93.6937369371       68.6105012713      100.9409693916
atom        16.4418000000       14.0453000000       14.0562000000 N         0.0000000000         0.0000000000      -125.7662330926       31.4465306563      113.4947392032
atom        12.8057000000       12.1769000000       14.2699000000 N         0.0000000000         0.0000000000      -129.2308131502     -156.3945802280       74.8451302770
atom        17.7704000000       13.4186000000       14.7170000000 N         0.0000000000         0.0000000000       125.2438388398     -186.3380393704       36.3600275164
energy     -3928.2640382213
charge 0
end
begin
comment generated by PY
lattice        30.0000000000         0.0000000000         0.0000000000
lattice         0.0000000000        30.0000000000         0.0000000000
lattice         0.0000000000         0.0000000000        30.0000000000
atom        13.4741000000       14.4154000000       15.7349000000 H         0.0000000000         0.0000000000        15.3593580282       29.4869840224      -99.1290864381
atom        12.7300000000       15.2674000000       14.4285000000 H         0.0000000000         0.0000000000        98.1781384298      -64.4954261514       29.8391037024
atom        16.9223000000       15.9677000000       14.8218000000 H         0.0000000000         0.0000000000       -93.9680470608      -99.4607216637       19.8091279962
atom        16.4203000000       15.0218000000       16.1213000000 H         0.0000000000         0.0000000000       -48.7113806782        6.2611834830     -107.8980625994
atom        15.1203000000       12.2442000000       14.9662000000 H         0.0000000000         0.0000000000        21.2194256294       88.3459364082      -98.5669131189
atom        15.3933000000       12.2813000000       13.1986000000 H         0.0000000000         0.0000000000        -4.8813370132       84.7909741115      102.5637554059
atom        13.6038000000       14.7369000000       14.7491000000 C         0.0000000000         0.0000000000        19.1099740253      -11.7680240990       -5.2108184944
atom        16.1716000000       15.1600000000       15.0851000000 C         0.0000000000         0.0000000000        39.4263932562      -16.4631694230      -50.5002682447
atom        15.2504000000       12.9377000000       14.0740000000 C         0.0000000000         0.0000000000       -44.9270965771      -17.4264544189       10.6279075020
atom        12.0461000000       11.9355000000       13.1240000000 O         0.0000000000         0.0000000000       208.9798534142      110.0387242566      263.0964369388
atom        18.2548000000       13.3668000000       15.8788000000 O         0.0000000000         0.0000000000      -105.3329873885      -38.2141614955     -308.0519937624
atom        12.4445000000       12.1343000000       15.3851000000 O         0.0000000000         0.0000000000        85.5504530089       47.8772015424     -319.2010763417
atom        18.6893000000       12.7466000000       13.7842000000 O         0.0000000000         0.0000000000      -239.1846644620      117.5088358503      217.7028782397
atom        14.6059000000       16.6057000000       15.9669000000 O         0.0000000000         0.0000000000       -17.0364865755      -78.6611185473     -218.5383241182
atom        13.4919000000       19.0362000000       14.7422000000 O         0.0000000000         0.0000000000       264.2209174104     -232.4178552481      216.6594341766
atom        14.3136000000       18.4327000000       15.4202000000 N         0.0000000000         0.0000000000      -240.6362486669      193.7967007268     -185.7166880878
atom        14.7196000000       15.8717000000       14.8113000000 N         0.0000000000         0.0000000000        38.5869850081     -127.1938208678      192.0062498300
atom        13.8113000000       13.4694000000       13.8258000000 N         0.0000000000         0.0000000000       110.2709754320       56.3464569629      127.4857232510
atom        16.4887000000       13.9508000000       14.2645000000 N         0.0000000000         0.0000000000      -131.9953315379       15.8534714021       68.7582774181
atom        12.7535000000       12.3390000000       14.1145000000 N         0.0000000000         0.0000000000      -193.0039182931      -51.0056759746       60.5655199493
atom        17.8927000000       13.1959000000       14.6641000000 N         0.0000000000         0.0000000000       218.7752676711      -13.2002908769       83.6979167955
energy     -3968.7112736703
charge 0
end
begin
comment generated by PY
lattice        30.0000000000         0.0000000000         0.0000000000
lattice         0.0000000000        30.0000000000         0.0000000000
lattice         0.0000000000         0.0000000000        30.0000000000
atom        13.5311000000       14.4342000000       15.6245000000 H         0.0000000000         0.0000000000        32.1013417819       47.7993085059      -92.9041739812
atom        12.8843000000       15.3974000000       14.3912000000 H         0.0000000000         0.0000000000       106.3261167652      -53.1693111451       24.7788537604
atom        17.0812000000       15.9299000000       14.8840000000 H         0.0000000000         0.0000000000       -53.8512951213      -72.9041207731       -4.7276684288
atom        16.5472000000       14.8450000000       16.1101000000 H         0.0000000000         0.0000000000       -20.3606331481       34.2476943147     -134.3800197226
atom        15.2734000000       12.2586000000       14.6241000000 H         0.0000000000         0.0000000000         6.5856474068       84.9955299074      -77.8344782582
atom        15.4368000000       12.3497000000       12.9036000000 H         0.0000000000         0.0000000000        -9.8435924676       88.4810421551      111.3686769019
atom        13.7702000000       14.8812000000       14.6963000000 C         0.0000000000         0.0000000000        14.2466968384      -47.6828533550        5.5991194203
atom        16.4107000000       15.1869000000       15.0187000000 C         0.0000000000         0.0000000000       -83.9707968552      -42.5513692435       21.2398116034
atom        15.2929000000       12.9796000000       13.8351000000 C         0.0000000000         0.0000000000       -27.2429218146        5.4535730601        2.3994232604
atom        12.5120000000       11.6241000000       13.1455000000 O         0.0000000000         0.0000000000        87.7008683103      242.8186927753      233.9285392663
atom        18.7014000000       13.8379000000       15.2735000000 O         0.0000000000         0.0000000000      -249.5689847081     -156.2493898325     -162.4967484195
atom        12.2034000000       12.6836000000       15.1410000000 O         0.0000000000         0.0000000000       152.3433876107      -38.3189168159     -288.7554381869
atom        17.8796000000       11.8599000000       14.6231000000 O         0.0000000000         0.0000000000       -50.3264559591      333.6591785465       -5.6972023057
atom        14.7884000000       16.7924000000       16.0148000000 O         0.0000000000         0.0000000000         7.7081596752     -100.6095623547     -195.4945657485
atom        12.9141000000       18.5576000000       15.1323000000 O         0.0000000000         0.0000000000       390.3617834457      -48.3854201114      133.6690614396