begin
comment generated by PY
lattice        30.0000000000         0.0000000000         0.0000000000
lattice         0.0000000000        30.0000000000         0.0000000000
lattice         0.0000000000         0.0000000000        30.0000000000
atom        16.9886000000       15.7962000000       16.0889000000 H         0.0000000000         0.0000000000      -113.1772911671      -42.6780080917      -40.1111328280
atom        13.0546000000       14.7896000000       16.8782000000 H         0.0000000000         0.0000000000        96.6944649897       11.1141747984      -82.2677686848
atom        14.5603000000       14.3998000000       13.0449000000 H         0.0000000000         0.0000000000        16.3940612776       31.7832911439      122.3007921249
atom        13.8814000000       14.8842000000       16.1751000000 C         0.0000000000         0.0000000000        84.9727866470        9.6147624785      -72.1819326342
atom        16.0211000000       15.4312000000       15.7460000000 C         0.0000000000         0.0000000000       -99.3656587330      -37.4786764044      -35.2081968861
atom        14.7005000000       14.6715000000       14.0905000000 C         0.0000000000         0.0000000000        14.4454408631       27.9359389413      107.4449271058
atom        15.0522000000       15.3544000000       16.7144000000 N         0.0000000000         0.0000000000       -43.4141555238      -84.7282320370     -324.5260478837
atom        13.5934000000       14.5146000000       14.8856000000 N         0.0000000000         0.0000000000       300.2810478913      113.2895038661      106.4468292314
atom        15.9574000000       15.1183000000       14.4116000000 N         0.0000000000         0.0000000000      -256.8300962449      -28.8528177556      218.1025073942
energy     -2062.8650479496
charge 0
end
begin
comment generated by PY
lattice        30.0000000000         0.0000000000         0.0000000000
lattice         0.0000000000        30.0000000000         0.0000000000
lattice         0.0000000000         0.0000000000        30.0000000000
atom        17.0453000000       15.6733000000       16.0588000000 H         0.0000000000         0.0000000000      -111.3588710905      -32.5405010925      -26.4260774325
atom        12.9080000000       15.1167000000       16.7470000000 H         0.0000000000         0.0000000000       118.7096166220      -32.9798331366      -56.8359246517
atom        14.5713000000       14.4583000000       13.0169000000 H         0.0000000000         0.0000000000        12.4877122913       17.2777379539      130.7801093051
atom        13.8473000000       14.9108000000       16.1952000000 C         0.0000000000         0.0000000000       116.8333224172       47.5000803500     -122.2879258300
atom        16.0667000000       15.3781000000       15.7575000000 C         0.0000000000         0.0000000000      -151.0115152289      -12.8167814804      -74.7704858539
atom        14.6945000000       14.6448000000       14.0967000000 C         0.0000000000         0.0000000000         7.6606566530       66.1661539360      114.8368062906
atom        15.0524000000       15.3508000000       16.6824000000 N         0.0000000000         0.0000000000       -49.4227932362      -91.0819411617     -277.3926002298
atom        13.6262000000       14.4682000000       14.8894000000 N         0.0000000000         0.0000000000       270.0964393809      120.9537794766       93.6223532103
atom        15.9253000000       15.1951000000       14.4210000000 N         0.0000000000         0.0000000000      -213.9945908693      -82.4786948453      218.4741221314
energy     -2059.1742726386
charge 0
end
begin
comment generated by PY
lattice        30.0000000000         0.0000000000         0.0000000000
lattice         0.0000000000        30.0000000000         0.0000000000
lattice         0.0000000000         0.0000000000        30.0000000000
atom        16.9893000000       15.8650000000       16.1133000000 H         0.0000000000         0.0000000000      -112.7820704966      -50.0215206504      -49.2233058322
atom        13.0920000000       14.4962000000       16.8260000000 H         0.0000000000         0.0000000000        87.9771451681       62.3850142491      -60.2989615007
atom        14.6051000000       14.3147000000       13.0146000000 H         0.0000000000         0.0000000000         6.0869690001       45.7295399638      119.6256669905
atom        13.8685000000       14.9025000000       16.2022000000 C         0.0000000000         0.0000000000       122.7909249127      -56.1714801810     -100.9855021813
atom        16.0363000000       15.4630000000       15.7337000000 C         0.0000000000         0.0000000000      -121.7987392794      -61.9794331186      -36.4062719259
atom        14.6938000000       14.6767000000       14.0369000000 C         0.0000000000         0.0000000000        30.6585121555        9.3467290812      172.9833617808
atom        15.0356000000       15.3480000000       16.7280000000 N         0.0000000000         0.0000000000       -50.8400851546      -65.1177693418     -310.2289074621
atom        13.6076000000       14.5343000000       14.8976000000 N         0.0000000000         0.0000000000       275.0062583787      109.5490879841       69.5156095970
atom        15.9576000000       15.0796000000       14.4235000000 N         0.0000000000         0.0000000000      -237.0987916241        6.2797681345      195.0183105339
energy     -2040.8318149194
charge 0
end
begin
comment generated by PY
lattice        30.0000000000         0.0000000000         0.0000000000
lattice         0.0000000000        30.0000000000         0.0000000000
lattice         0.0000000000         0.0000000000        30.0000000000
atom        17.0618000000       15.9180000000       16.1011000000 H         0.0000000000         0.0000000000      -135.1816818022      -48.9789604194      -45.9880999056
atom        13.0381000000       14.5929000000       16.8134000000 H         0.0000000000         0.0000000000       109.1300834162       32.0303179166      -60.6294062339
atom        14.6049000000       14.4540000000       12.9751000000 H         0.0000000000         0.0000000000         4.1909021538       20.6464044089      135.8267661018
atom        13.9030000000       14.8274000000       16.1915000000 C         0.0000000000         0.0000000000        65.2558648959       37.6972020889     -101.4148321300
atom        16.0115000000       15.5022000000       15.7371000000 C         0.0000000000         0.0000000000       -79.1327184089      -92.4630418008      -27.9046861403
atom        14.6883000000       14.6581000000       14.0716000000 C         0.0000000000         0.0000000000        24.5450905410       50.4386550005      122.8014587937
atom        15.0443000000       15.3574000000       16.7059000000 N         0.0000000000         0.0000000000       -44.8093789595      -82.3680979230     -308.4652085302
atom        13.5726000000       14.5809000000       14.8817000000 N         0.0000000000         0.0000000000       313.8338048522       60.4965909748       88.9147408724
atom        15.9792000000       15.0497000000       14.4425000000 N         0.0000000000         0.0000000000      -257.8323897491       22.5011297535      196.8597671720
energy     -2034.2296607229
charge 0
end
begin
comment generated by PY
lattice        30.0000000000         0.0000000000         0.0000000000
lattice         0.0000000000        30.0000000000         0.0000000000
lattice         0.0000000000         0.0000000000        30.0000000000
atom        16.9307000000       15.7805000000       16.0409000000 H         0.0000000000         0.0000000000       -81.2386730855      -48.4083912203      -20.4973187782
atom        12.9250000000       15.0730000000       16.7408000000 H         0.0000000000         0.0000000000       118.0633699592      -24.9440450169      -57.8606892438
atom        14.5960000000       14.3668000000       13.0540000000 H         0.0000000000         0.0000000000        12.4746196297       37.0265033642      124.1089468576
atom        13.8620000000       14.9147000000       16.1714000000 C         0.0000000000         0.0000000000        72.2155534905       31.5619663469      -90.7383479526
atom        16.0419000000       15.3586000000       15.7543000000 C         0.0000000000         0.0000000000      -135.4628077018       33.3210659356      -59.0999184982
atom        14.7149000000       14.6648000000       14.1050000000 C         0.0000000000         0.0000000000         8.0647149898       23.9100485146       85.9262328390
atom        15.0591000000       15.3589000000       16.7173000000 N         0.0000000000         0.0000000000       -51.2039719154     -104.8981929839     -319.8622335240
atom        13.5893000000       14.4636000000       14.8857000000 N         0.0000000000         0.0000000000       307.4620364273      139.6712235910      106.9216361673
atom        15.9519000000       15.1898000000       14.4049000000 N         0.0000000000         0.0000000000      -250.3751187333      -87.2400015918      231.1018151935
energy     -2049.4493799839
charge 0
end
begin
comment generated by PY
lattice        30.0000000000         0.0000000000         0.0000000000
lattice         0.0000000000        30.0000000000         0.0000000000
lattice         0.0000000000         0.0000000000        30.0000000000
atom        17.0355000000       15.5607000000       16.1717000000 H         0.0000000000         0.0000000000      -124.8954985570       -6.8771146547      -53.4143405777
atom        13.0805000000       14.7857000000       16.8411000000 H         0.0000000000         0.0000000000        76.6397479923       23.1565557161      -70.1250899505
atom        14.5005000000       14.4151000000       13.0820000000 H         0.0000000000         0.0000000000        30.6911250106       24.2584893277      102.6303970745
atom        13.8573000000       14.9452000000       16.1662000000 C         0.0000000000         0.0000000000       122.9685361909      -54.6836724813      -80.9238037460
atom        16.0062000000       15.4264000000       15.7633000000 C         0.0000000000         0.0000000000       -79.9574796333      -79.1137250215      -19.0143472703
atom        14.7120000000       14.6643000000       14.0774000000 C         0.0000000000         0.0000000000         7.1900686604       43.5055560745      134.7686037376
atom        15.0456000000       15.3373000000       16.7225000000 N         0.0000000000         0.0000000000       -46.6254308616      -53.2778475825     -331.5544991985
atom        13.6267000000       14.4822000000       14.8954000000 N         0.0000000000         0.0000000000       273.1774253755      144.9140894371      101.6547976356
atom        15.9534000000       15.1418000000       14.3919000000 N         0.0000000000         0.0000000000      -259.1883441777      -41.8827077548      215.9791053557
energy     -2064.8555121848
charge 0
end
begin
comment generated by PY
lattice        30.0000000000         0.0000000000         0.0000000000
lattice         0.0000000000        30.0000000000         0.0000000000
lattice         0.0000000000         0.0000000000        30.0000000000
atom        16.9799000000       15.9786000000       16.1845000000 H         0.0000000000         0.0000000000      -112.9619000939      -55.6495108204      -61.7363718623
atom        13.1168000000       14.6098000000       16.8934000000 H         0.0000000000         0.0000000000        92.6010507846       17.6851459579      -82.9580272183
atom        14.4718000000       14.3422000000       13.0792000000 H         0.0000000000         0.0000000000        36.7070225357       50.3932713793      108.7081737404
atom        13.9026000000       14.7909000000       16.1668000000 C         0.0000000000         0.0000000000        52.3960466376       63.7902736222      -78.9085025419
atom        16.0368000000       15.5270000000       15.7623000000 C         0.0000000000         0.0000000000      -123.9175175776     -100.2274286656       -4.5382156778
atom        14.6907000000       14.7154000000       14.0711000000 C         0.0000000000         0.0000000000        19.4899311963      -29.5963751416      131.0014716474
atom        15.0461000000       15.3753000000       16.7091000000 N         0.0000000000         0.0000000000       -19.2052957614      -86.7926267370     -318.3787745752
atom        13.5457000000       14.5708000000       14.8672000000 N         0.0000000000         0.0000000000       320.6470555441       81.4180809575      127.9159871714
atom        15.9905000000       15.0053000000       14.4348000000 N         0.0000000000         0.0000000000      -265.7561702049       58.9792594476      178.8946343163
energy     -2021.3112814589
charge 0
end
begin
comment generated by PY
lattice        30.0000000000         0.0000000000         0.0000000000
lattice         0.0000000000        30.0000000000         0.0000000000
lattice         0.0000000000         0.0000000000        30.0000000000
atom        16.8162000000       16.0195000000       16.1079000000 H         0.0000000000         0.0000000000       -69.7656372520      -76.4400145061      -41.8738495954
atom        13.0244000000       14.8182000000       16.8763000000 H         0.0000000000         0.0000000000       101.1575094450        6.4790006152      -86.2513173851
atom        14.3764000000       14.4432000000       13.0337000000 H         0.0000000000         0.0000000000        63.9120745069       22.2867489046      126.5781552187
atom        13.8690000000       14.8745000000       16.1603000000 C         0.0000000000         0.0000000000        66.1653931685       15.5139770354      -65.1020677818
atom        16.0278000000       15.4137000000       15.7685000000 C         0.0000000000         0.0000000000      -140.1731965774       24.9759546103      -31.1478908616
atom        14.7294000000       14.6442000000       14.1047000000 C         0.0000000000         0.0000000000       -30.0537474713       61.3254843653       69.4330417205
atom        15.0589000000       15.3609000000       16.7271000000 N         0.0000000000         0.0000000000       -39.4952632195      -99.5872923308     -333.1590676487
atom        13.5747000000       14.5294000000       14.8697000000 N         0.0000000000         0.0000000000       313.1532541252       99.6223562390      140.6930576917
atom        15.9773000000       15.1226000000       14.3955000000 N         0.0000000000         0.0000000000      -264.9006467255      -54.1760818724      220.8314055812
energy     -2032.3569821967
charge 0
end
begin
comment generated by PY
lattice        30.0000000000         0.0000000000         0.0000000000
lattice         0.0000000000        30.0000000000         0.0000000000
lattice         0.0000000000         0.0000000000        30.0000000000
atom        17.0370000000       15.5682000000       16.2370000000 H         0.0000000000         0.0000000000      -120.1249460526      -15.5626671734      -66.6296244907
atom        12.9937000000       14.9648000000       16.8826000000 H         0.0000000000         0.0000000000       102.0965107874       -4.2370206136      -92.1117599669
atom        14.4736000000       14.3598000000       13.1068000000 H         0.0000000000         0.0000000000        38.5311538172       35.1588048898       94.3852396742
atom        13.8503000000       14.9477000000       16.1598000000 C         0.0000000000         0.0000000000       103.6501339948      -25.7910750890      -64.0914986440
atom        16.0321000000       15.3962000000       15.7714000000 C         0.0000000000         0.0000000000      -112.6117349982      -46.4632629723      -20.0170834181
atom        14.7159000000       14.6660000000       14.0727000000 C         0.0000000000         0.0000000000         1.6991279939       33.8283229101      152.8296343657
atom        15.0418000000       15.3376000000       16.7095000000 N         0.0000000000         0.0000000000       -39.0630787174      -64.8822948621     -320.2863658059
atom        13.6296000000       14.4585000000       14.9005000000 N         0.0000000000         0.0000000000       265.8165460091      154.5665298048      103.1328587619
atom        15.9427000000       15.1779000000       14.3929000000 N         0.0000000000         0.0000000000      -239.9927697736      -66.6168530155      212.7883995239
energy     -2052.3530329419
charge 0
end
begin
comment generated by PY
lattice        30.0000000000         0.0000000000         0.0000000000
lattice         0.0000000000        30.0000000000         0.0000000000
lattice         0.0000000000         0.0000000000        30.0000000000
atom        16.9897000000       15.7843000000       16.2393000000 H         0.0000000000         0.0000000000      -111.7002547422      -39.1799063631      -70.8953316173
atom        13.0851000000       14.7601000000       16.8054000000 H         0.0000000000         0.0000000000        70.1379997628       14.0655066365      -52.8480965341
atom        14.4861000000       14.3427000000       13.1160000000 H         0.0000000000         0.0000000000        33.6762310176       38.2481726657       89.7083960196
atom        13.8564000000       14.8842000000       16.1626000000 C         0.0000000000         0.0000000000       127.9813793139       -0.1499694392     -114.5709080020
atom        16.0318000000       15.4513000000       15.7649000000 C         0.0000000000         0.0000000000      -121.5206220374      -62.4565811367      -12.8197525647
atom        14.6968000000       14.6736000000       14.0716000000 C         0.0000000000         0.0000000000        14.1096430345       22.2392325296      167.2764873321
atom        15.0623000000       15.3480000000       16.6913000000 N         0.0000000000         0.0000000000       -48.6912856312      -70.5784563409     -302.8810839155
atom        13.5976000000       14.5136000000       14.8890000000 N         0.0000000000         0.0000000000       284.1399131252      117.7050145039      107.0993265691
atom        15.9616000000       15.1136000000       14.4315000000 N         0.0000000000         0.0000000000      -248.1325607826      -19.8930299953      189.9296396525
energy     -2070.9431413398
charge 0
end
begin
comment generated by PY
lattice        30.0000000000         0.0000000000         0.0000000000
lattice         0.0000000000        30.0000000000         0.0000000000
lattice         0.0000000000         0.0000000000        30.0000000000
atom        16.7045000000       16.0773000000       16.1265000000 H         0.0000000000         0.0000000000       -43.0616956376      -63.9441275207      -54.1592066059
atom        13.0755000000       14.6378000000       16.9091000000 H         0.0000000000         0.0000000000        99.1797855098       17.4693310856      -89.4067122769
atom        14.3804000000       14.4526000000       13.0230000000 H         0.0000000000         0.0000000000        62.7964424410       25.0825489172      126.8899903855
atom        13.8956000000       14.7986000000       16.1714000000 C         0.0000000000         0.0000000000        55.5745026433       64.5057091173      -75.6492523037
atom        15.9954000000       15.4684000000       15.7320000000 C         0.0000000000         0.0000000000      -147.7973288082      -34.2884441191       -2.0684884202
atom        14.7302000000       14.6689000000       14.0865000000 C         0.0000000000         0.0000000000       -19.8041495494       45.7796158501      106.9004348016
atom        15.0540000000       15.3768000000       16.7119000000 N         0.0000000000         0.0000000000       -43.1434491896     -113.7648124562     -331.8787423361
atom        13.5831000000       14.6052000000       14.8810000000 N         0.0000000000         0.0000000000       306.7234134071       47.4026155175      131.3346329961
atom        15.9820000000       15.0359000000       14.4340000000 N         0.0000000000         0.0000000000      -270.4669577558       11.7576966689      188.0374868202
energy     -2057.2587033277
charge 0
end
begin
comment generated by PY
lattice        30.0000000000         0.0000000000         0.0000000000
lattice         0.0000000000        30.0000000000         0.0000000000
lattice         0.0000000000         0.0000000000        30.0000000000
atom        17.0201000000       15.6806000000       16.2291000000 H         0.0000000000         0.0000000000      -112.9229924458      -26.5662120265      -62.6082268001
atom        13.0500000000       14.8677000000       16.8627000000 H         0.0000000000         0.0000000000        96.9234555379        1.2936336574      -83.0705608666
atom        14.5323000000       14.3760000000       13.1016000000 H         0.0000000000         0.0000000000        20.4512525303       34.6716122786       92.9422669774
atom        13.8823000000       14.9002000000       16.1578000000 C         0.0000000000         0.0000000000        68.2617391734        3.3153613467      -66.3768208487
atom        16.0448000000       15.4293000000       15.7878000000 C         0.0000000000         0.0000000000      -128.8996393612      -54.0660440051      -20.2137714695
atom        14.6957000000       14.6837000000       14.0734000000 C         0.0000000000         0.0000000000        28.6466539760       15.4729694437      141.0776722035
atom        15.0468000000       15.3607000000       16.7140000000 N         0.0000000000         0.0000000000       -22.2759911034      -80.6309038081     -323.7432762658
atom        13.5882000000       14.4815000000       14.8926000000 N         0.0000000000         0.0000000000       298.0912702037      138.8059999407      108.8356692998
atom        15.9512000000       15.1269000000       14.3857000000 N         0.0000000000         0.0000000000      -248.2766254503      -32.2967468274      213.1575638910
energy     -2048.3422217348
charge 0
end
begin
comment generated by PY
lattice        30.0000000000         0.0000000000         0.0000000000
lattice         0.0000000000        30.0000000000         0.0000000000
lattice         0.0000000000         0.0000000000        30.0000000000
atom        17.0840000000       15.5972000000       16.2275000000 H         0.0000000000         0.0000000000      -127.9973540910      -20.5900631640      -66.2030443691
atom        13.0561000000       14.9000000000       16.8527000000 H         0.0000000000         0.0000000000        79.2014139828       11.3018452761      -76.9416958991
atom        14.5289000000       14.3483000000       13.0133000000 H         0.0000000000         0.0000000000        29.2958943631       38.5154051184      135.2173416619
atom        13.8424000000       14.9674000000       16.1588000000 C         0.0000000000         0.0000000000       125.5742561280      -58.5201587401      -66.3163074539
atom        16.0499000000       15.3997000000       15.7594000000 C         0.0000000000         0.0000000000      -112.3977859518      -40.6781410591      -19.8766956729
atom        14.7209000000       14.6572000000       14.1019000000 C         0.0000000000         0.0000000000        -3.6997197461       32.7308132255       82.4370648784
atom        15.0404000000       15.3294000000       16.7164000000 N         0.0000000000         0.0000000000       -39.2934807069      -54.1232975362     -324.1477800892
atom        13.6061000000       14.4476000000       14.8985000000 N         0.0000000000         0.0000000000       284.3189916292      163.6053141920      103.1365378511
atom        15.9431000000       15.1884000000       14.3837000000 N         0.0000000000         0.0000000000      -235.0017156074      -72.2414573126      232.6935790928
energy     -2031.6520514621
charge 0
end
begin
comment generated by PY
lattice        30.0000000000         0.0000000000         0.0000000000
lattice         0.0000000000        30.0000000000         0.0000000000
lattice         0.0000000000         0.0000000000        30.0000000000
atom        16.8459000000       16.0131000000       16.0443000000 H         0.0000000000         0.0000000000       -83.5139051390      -69.0311934128      -33.5936494330
atom        13.0266000000       14.8054000000       16.9472000000 H         0.0000000000         0.0000000000       107.9786639284       -4.2897679621      -99.5196483196
atom        14.5440000000       14.3421000000       13.0387000000 H         0.0000000000         0.0000000000        24.7751866364       42.0741905805      121.8956259195
atom        13.9086000000       14.8324000000       16.1809000000 C         0.0000000000         0.0000000000        47.7426836195       71.3079685236      -56.4143834651
atom        16.0076000000       15.4468000000       15.7446000000 C         0.0000000000         0.0000000000      -121.3942262669      -13.7338863937      -39.8887568729
atom        14.7185000000       14.6644000000       14.0756000000 C         0.0000000000         0.0000000000         4.7132668666       23.1249206606      118.3334393528
atom        15.0336000000       15.3656000000       16.7357000000 N         0.0000000000         0.0000000000       -29.7238536183     -107.9333205885     -337.6525225844
atom        13.5952000000       14.5677000000       14.8661000000 N         0.0000000000         0.0000000000       305.2585993042       69.7158137323      117.0217002107
atom        15.9604000000       15.0786000000       14.4175000000 N         0.0000000000         0.0000000000      -255.8369383914      -11.2348251398      209.8179721314
energy     -2049.7542357403
charge 0
end
begin
comment generated by PY
lattice        30.0000000000         0.0000000000         0.0000000000
lattice         0.0000000000        30.0000000000         0.0000000000
lattice         0.0000000000         0.0000000000        30.0000000000
atom        17.0131000000       15.8000000000       16.1550000000 H         0.0000000000         0.0000000000      -120.7333747152      -28.1931743557      -57.2293308138
atom        13.1617000000       14.5638000000       16.8916000000 H         0.0000000000         0.0000000000        72.2347881398       31.7590677286      -73.3870945548
atom        14.5952000000       14.5320000000       13.0217000000 H         0.0000000000         0.0000000000         7.1468970637       11.7799944843      131.5983798706
atom        13.8823000000       14.8290000000       16.1846000000 C         0.0000000000         0.0000000000       114.1848626294       28.8048451383      -88.0456052176
atom        16.0227000000       15.5038000000       15.7312000000 C         0.0000000000         0.0000000000       -87.2936582478     -112.4380442402      -17.3525798673
atom        14.6880000000       14.6822000000       14.1123000000 C         0.0000000000         0.0000000000        11.7372738847       35.5140986501       79.7091658472
atom        15.0476000000       15.3710000000       16.6945000000 N         0.0000000000         0.0000000000       -55.5005078616      -86.3049487416     -308.1354213848
atom        13.5642000000       14.5461000000       14.8488000000 N         0.0000000000         0.0000000000       318.3820220669       87.7886091229      120.2550592720
atom        15.9880000000       15.0524000000       14.4502000000 N         0.0000000000         0.0000000000      -260.1582460205       31.2894291526      212.5857499092
energy     -2050.6994101655
charge 0
end
begin
comment generated by PY
lattice        30.0000000000         0.0000000000         0.0000000000
lattice         0.0000000000        30.0000000000         0.0000000000
lattice         0.0000000000         0.0000000000        30.0000000000
atom        16.9777000000       15.7015000000       16.1113000000 H         0.0000000000         0.0000000000      -103.5665957767      -42.7366253956      -38.0139859985
atom        12.9318000000       14.9437000000       16.8665000000 H         0.0000000000         0.0000000000       116.7753864118       -0.8149897404      -86.0571128107
atom        14.7394000000       14.3442000000       13.1239000000 H         0.0000000000         0.0000000000       -20.9227246762       36.6344060270       91.5324835779
atom        13.8512000000       14.9393000000       16.1706000000 C         0.0000000000         0.0000000000        86.8136567390      -19.2870165136      -62.0345887339
atom        16.0299000000       15.3623000000       15.7557000000 C         0.0000000000         0.0000000000      -104.6176377322       23.4400533599      -44.3978339834
atom        14.7100000000       14.6946000000       14.0925000000 C         0.0000000000         0.0000000000        45.0316282880       -6.5682617269      123.6636795149
atom        15.0452000000       15.3596000000       16.7162000000 N         0.0000000000         0.0000000000       -53.3852589682      -94.4941717839     -323.5873955873
atom        13.6052000000       14.4309000000       14.8865000000 N         0.0000000000         0.0000000000       288.6767425148      172.0590281471       95.9956767752
atom        15.9597000000       15.1884000000       14.3964000000 N         0.0000000000         0.0000000000      -254.8055678609      -68.2319033129      242.8994541852
energy     -2042.6820427439
charge 0
end
begin
comment generated by PY
lattice        30.0000000000         0.0000000000         0.0000000000
lattice         0.0000000000        30.0000000000         0.0000000000
lattice         0.0000000000         0.0000000000        30.0000000000
atom        16.9447000000       15.7175000000       16.1328000000 H         0.0000000000         0.0000000000      -100.4888819987      -33.5327311008      -46.9578537256
atom        13.0058000000       15.0036000000       16.8583000000 H         0.0000000000         0.0000000000        98.0375483102      -16.3201953865      -86.8234066965
atom        14.6869000000       14.4671000000       12.9721000000 H         0.0000000000         0.0000000000        -9.4648843322        6.7754787902      137.0337072502