begin
comment generated by PY
lattice        30.0000000000         0.0000000000         0.0000000000
lattice         0.0000000000        30.0000000000         0.0000000000
lattice         0.0000000000         0.0000000000        30.0000000000
atom        14.1279100000       13.8453300000       15.6658200000 H         0.0000000000         0.0000000000         0.1502308845       45.2863805355     -117.8797683945
atom        13.0808400000       14.3340700000       14.1564600000 H         0.0000000000         0.0000000000       109.9543052787        7.9622176600       61.5212292870
atom        14.0417300000       14.3409700000       14.6838800000 C         0.0000000000         0.0000000000       131.5242830724      158.9154746542      -46.1305718532
atom        17.0895300000       14.0375200000       14.6126100000 O         0.0000000000         0.0000000000      -238.0198775930      199.0289689172       -7.0207056343
atom        16.8162700000       16.0173100000       15.2093500000 O         0.0000000000         0.0000000000      -170.4457751762     -202.8344142969     -124.0048615542
atom        14.9148500000       15.1465000000       14.2198000000 N         0.0000000000         0.0000000000       -81.7020551938     -231.4674182884      127.9870963098
atom        16.2876500000       15.0253100000       14.7103500000 N         0.0000000000         0.0000000000       248.5585677383       23.0937604309      105.5313101032
energy     -1383.0292297537
charge 0
end
begin
comment generated by PY
lattice        30.0000000000         0.0000000000         0.0000000000
lattice         0.0000000000        30.0000000000         0.0000000000
lattice         0.0000000000         0.0000000000        30.0000000000
atom        14.2937800000       13.5308600000       15.4012700000 H         0.0000000000         0.0000000000       -20.6815695014      102.0585240941      -66.5254847576
atom        13.0459900000       14.5191800000       14.3593100000 H         0.0000000000         0.0000000000       120.1996608322      -17.0416872196       37.0206378400
atom        14.0752800000       14.3725100000       14.7254700000 C         0.0000000000         0.0000000000       160.2591695046       95.7432715459     -116.1479372163
atom        16.9683200000       13.9450700000       14.5420300000 O         0.0000000000         0.0000000000      -117.5268444989      288.9697431743       82.3787416818
atom        16.7386800000       16.1379500000       15.2281600000 O         0.0000000000         0.0000000000       -67.8802258526     -301.0028536073     -106.2219248480
atom        14.9742800000       15.0857300000       14.1561300000 N         0.0000000000         0.0000000000      -139.4610087506     -159.5125785319      198.1375519859
atom        16.4172700000       15.0360400000       14.8019100000 N         0.0000000000         0.0000000000        65.1500606017       -9.2223981924      -28.6313453769
energy     -1384.5535888793
charge 0
end
begin
comment generated by PY
lattice        30.0000000000         0.0000000000         0.0000000000
lattice         0.0000000000        30.0000000000         0.0000000000
lattice         0.0000000000         0.0000000000        30.0000000000
atom        14.5010700000       13.7179300000       15.5962200000 H         0.0000000000         0.0000000000       -24.0685483444       74.4768417294      -99.4329863711
atom        13.1727200000       14.5376300000       14.5052900000 H         0.0000000000         0.0000000000       124.5558679268      -26.3484629876       18.2505979570
atom        14.2295600000       14.3606200000       14.7435000000 C         0.0000000000         0.0000000000       129.6163857785      155.7654750249      -70.2613644814
atom        16.8801500000       13.9388600000       14.5572200000 O         0.0000000000         0.0000000000      -118.8026276976      273.1304341389       50.1639821295
atom        16.6818200000       16.1182000000       15.2513100000 O         0.0000000000         0.0000000000       -79.6931239038     -283.5116677999     -130.3990328814
atom        15.0806500000       15.1226400000       14.1529000000 N         0.0000000000         0.0000000000      -113.9511832860     -196.1530473716      205.1543548992
atom        16.3204200000       15.0243100000       14.7215100000 N         0.0000000000         0.0000000000        82.3450049759        2.6445012251       26.5086988196
energy     -1409.7271909880
charge 0
end
begin
comment generated by PY
lattice        30.0000000000         0.0000000000         0.0000000000
lattice         0.0000000000        30.0000000000         0.0000000000
lattice         0.0000000000         0.0000000000        30.0000000000
atom        14.5956200000       13.8325200000       15.6644600000 H         0.0000000000         0.0000000000       -31.8917268098       67.3084391148     -101.8357215005
atom        13.3161800000       14.0453900000       14.3194700000 H         0.0000000000         0.0000000000        93.9769000794       58.2754596355       59.8509982241
atom        14.2372300000       14.3935700000       14.7898600000 C         0.0000000000         0.0000000000       127.7449369602       77.0156886479     -141.7723327090
atom        16.9285800000       13.9821500000       14.6252100000 O         0.0000000000         0.0000000000      -166.6819852065      246.1941824297      -25.7869745991
atom        16.7213400000       16.0097400000       15.2815500000 O         0.0000000000         0.0000000000      -107.9046289594     -214.5613737059     -169.2171808511
atom        14.9625800000       15.1780300000       14.0910900000 N         0.0000000000         0.0000000000       -52.5601524547     -232.0601804244      212.2685639996
atom        16.3144100000       15.0421000000       14.6397000000 N         0.0000000000         0.0000000000       137.2775381564       -2.1660591699      166.4683069211
energy     -1408.8850552194
charge 0
end
begin
comment generated by PY
lattice        30.0000000000         0.0000000000         0.0000000000
lattice         0.0000000000        30.0000000000         0.0000000000
lattice         0.0000000000         0.0000000000        30.0000000000
atom        14.5725700000       13.8380700000       15.6194400000 H         0.0000000000         0.0000000000       -42.3730732821       58.1008878608     -100.4320159627
atom        13.0630100000       14.4107600000       14.6806000000 H         0.0000000000         0.0000000000       124.0091987927      -10.0204312960       -6.8104934346
atom        14.1608000000       14.3668200000       14.7477700000 C         0.0000000000         0.0000000000       105.5634039917      141.5488135956      -77.6095212329
atom        16.9469100000       13.9765400000       14.5827600000 O         0.0000000000         0.0000000000      -120.0713401498      277.3478792341       50.2072373107
atom        16.7813000000       16.0586200000       15.3103000000 O         0.0000000000         0.0000000000       -89.8715538794     -247.2618814522     -141.7728277705
atom        14.8505000000       15.1016900000       14.0044200000 N         0.0000000000         0.0000000000       -93.0075617230     -173.3057415247      232.5913095166
atom        16.4223200000       15.0654400000       14.7555500000 N         0.0000000000         0.0000000000       115.7237296801      -46.3705859079       43.8402509627
energy     -1399.8499151973
charge 0
end
begin
comment generated by PY
lattice        30.0000000000         0.0000000000         0.0000000000
lattice         0.0000000000        30.0000000000         0.0000000000
lattice         0.0000000000         0.0000000000        30.0000000000
atom        14.1889100000       13.6019400000       15.5001300000 H         0.0000000000         0.0000000000       -13.3847831114       98.8150239012      -75.0111394945
atom        12.9525000000       14.4983900000       14.3909600000 H         0.0000000000         0.0000000000       123.3396983526      -13.0100961339       33.4839725841
atom        14.0009600000       14.3881600000       14.7494900000 C         0.0000000000         0.0000000000       147.6848392481       84.1196002608     -141.3888158045
atom        17.0273700000       13.9770600000       14.5263800000 O         0.0000000000         0.0000000000      -148.4264790288      283.8304157085       84.3027828852
atom        16.8192000000       16.1163600000       15.2932100000 O         0.0000000000         0.0000000000      -113.0466201854     -292.2513879553     -130.7461255543
atom        14.8910800000       15.0439100000       14.0633800000 N         0.0000000000         0.0000000000      -155.5237054204     -141.3707088273      234.7214821640
atom        16.4189000000       15.0489500000       14.8082700000 N         0.0000000000         0.0000000000       159.3693883900      -20.1061679293       -5.3576213969
energy     -1352.9649909506
charge 0
end
begin
comment generated by PY
lattice        30.0000000000         0.0000000000         0.0000000000
lattice         0.0000000000        30.0000000000         0.0000000000
lattice         0.0000000000         0.0000000000        30.0000000000
atom        13.9831900000       13.9843200000       15.7224500000 H         0.0000000000         0.0000000000         2.9153776666       33.9591663002     -121.0414107751
atom        13.1066300000       14.3831700000       14.0381800000 H         0.0000000000         0.0000000000        97.1625777614        7.6354299751       79.4028417568
atom        13.9829400000       14.3905300000       14.6935600000 C         0.0000000000         0.0000000000       179.5113428627      145.3924046661      -56.0274352780
atom        17.0705700000       14.0550400000       14.5461500000 O         0.0000000000         0.0000000000      -185.3705334149      194.6733574006       28.9883347646
atom        16.7661900000       16.0262500000       15.2275900000 O         0.0000000000         0.0000000000      -106.3157382288     -222.2565827934     -109.2804809844
atom        14.9714200000       15.0891800000       14.2354400000 N         0.0000000000         0.0000000000      -127.0920541497     -205.0119069958      118.0435311815
atom        16.3689200000       14.9964400000       14.7459200000 N         0.0000000000         0.0000000000       139.2267869811       45.6011773746       59.9328138940
energy     -1410.5835075953
charge 0
end
begin
comment generated by PY
lattice        30.0000000000         0.0000000000         0.0000000000
lattice         0.0000000000        30.0000000000         0.0000000000
lattice         0.0000000000         0.0000000000        30.0000000000
atom        14.0419800000       13.8088700000       15.5939400000 H         0.0000000000         0.0000000000        10.0108042882       77.5370986113      -96.8006602127
atom        13.1693700000       14.6449400000       14.1208300000 H         0.0000000000         0.0000000000       104.2290373645      -21.9255298803       69.6605237831
atom        14.0754100000       14.4661800000       14.7117100000 C         0.0000000000         0.0000000000       152.1899702915       81.2870231182      -78.8606752885
atom        17.0317000000       13.9878500000       14.4961600000 O         0.0000000000         0.0000000000      -175.2592755735      244.6785432309       73.7213757738
atom        16.6683000000       16.1037300000       15.2314900000 O         0.0000000000         0.0000000000       -78.3975062750     -282.5916050394     -104.3906740584
atom        15.0836200000       15.0235900000       14.2537400000 N         0.0000000000         0.0000000000      -132.0999562284     -136.8485986170      147.6918313713
atom        16.3249900000       14.9792000000       14.7680000000 N         0.0000000000         0.0000000000       119.3177702768       37.8436901711      -11.0380327211
energy     -1420.9456810864
charge 0
end
begin
comment generated by PY
lattice        30.0000000000         0.0000000000         0.0000000000
lattice         0.0000000000        30.0000000000         0.0000000000
lattice         0.0000000000         0.0000000000        30.0000000000
atom        14.2244500000       13.8164900000       15.6605200000 H         0.0000000000         0.0000000000        -0.7689295216       83.7728169892      -95.3183203661
atom        13.0397100000       14.5615000000       14.4827600000 H         0.0000000000         0.0000000000       125.6844344062       -7.0368232546       16.5046501241
atom        14.0985400000       14.4749000000       14.7717900000 C         0.0000000000         0.0000000000       145.0780128940       61.8561747056     -101.1964526150
atom        16.9994700000       13.9565900000       14.5206600000 O         0.0000000000         0.0000000000      -125.6384648819      285.3646991235       74.7599633818
atom        16.6534200000       16.0986000000       15.2995400000 O         0.0000000000         0.0000000000       -46.3024509312     -286.8901920891     -139.2834787499
atom        15.0301100000       15.0137400000       14.0736500000 N         0.0000000000         0.0000000000      -144.7619415820     -110.9561829867      236.3596747603
atom        16.4087300000       15.0285700000       14.7601700000 N         0.0000000000         0.0000000000        46.6906483636      -26.1458828843        8.1888217898
energy     -1389.0953913440
charge 0
end
begin
comment generated by PY
lattice        30.0000000000         0.0000000000         0.0000000000
lattice         0.0000000000        30.0000000000         0.0000000000
lattice         0.0000000000         0.0000000000        30.0000000000
atom        14.5046500000       14.2536500000       15.8321200000 H         0.0000000000         0.0000000000       -42.5088924385       13.3534822680     -117.9799875308
atom        13.1724400000       14.2954700000       14.3755000000 H         0.0000000000         0.0000000000       110.3604977873       21.9423092236       58.5471303274
atom        14.1608200000       14.4623200000       14.8140400000 C         0.0000000000         0.0000000000       149.5785382317      130.0657336568     -145.4074163893
atom        17.0318600000       14.0375000000       14.6035700000 O         0.0000000000         0.0000000000      -198.8088821582      209.6444748854      -13.6870867143
atom        16.6842000000       15.9655400000       15.3112200000 O         0.0000000000         0.0000000000      -114.2374247320     -186.4698273834     -151.6388555273
atom        14.9729400000       15.0792700000       14.0085100000 N         0.0000000000         0.0000000000       -81.7866366629     -181.6178175294      254.5873249400
atom        16.3107900000       15.0212000000       14.6763800000 N         0.0000000000         0.0000000000       177.4101028343       -6.9156357928      115.5756320249
energy     -1409.5473460798
charge 0
end
begin
comment generated by PY
lattice        30.0000000000         0.0000000000         0.0000000000
lattice         0.0000000000        30.0000000000         0.0000000000
lattice         0.0000000000         0.0000000000        30.0000000000
atom        14.5828400000       14.2790300000       15.8607900000 H         0.0000000000         0.0000000000       -34.0685742612       31.9100409424     -116.1702539994
atom        13.2295200000       14.1336800000       14.5730300000 H         0.0000000000         0.0000000000       114.0962389402       61.3294639671       24.9455659997
atom        14.2283300000       14.5289600000       14.8537700000 C         0.0000000000         0.0000000000       139.5929006451       39.0553028834     -141.0288016272
atom        16.9781100000       13.9943800000       14.5627700000 O         0.0000000000         0.0000000000      -170.0267750496      257.3054189375       -1.2092558204
atom        16.6235800000       16.0037800000       15.3797900000 O         0.0000000000         0.0000000000       -85.6238387132     -233.2978314539     -199.7729653144
atom        15.0285500000       15.0285700000       13.9657500000 N         0.0000000000         0.0000000000       -87.0974435883     -135.0310487299      285.9018317015
atom        16.3182900000       15.0300500000       14.6371600000 N         0.0000000000         0.0000000000       123.0842384095      -21.3046078275      147.3063064027
energy     -1394.9008298319
charge 0
end
begin
comment generated by PY
lattice        30.0000000000         0.0000000000         0.0000000000
lattice         0.0000000000        30.0000000000         0.0000000000
lattice         0.0000000000         0.0000000000        30.0000000000
atom        14.2935800000       14.2374700000       15.9104200000 H         0.0000000000         0.0000000000        11.3759566070       34.7478643929     -126.8279144754
atom        13.1489300000       14.7023600000       14.5920400000 H         0.0000000000         0.0000000000       122.4514799900      -30.9220951729        7.7767210745
atom        14.2104100000       14.5327800000       14.8263600000 C         0.0000000000         0.0000000000        91.8694010231      109.4778550401      -89.7391304288
atom        16.9638600000       13.9742800000       14.4683400000 O         0.0000000000         0.0000000000       -95.3778744830      263.9186576349       87.0696177927
atom        16.5623800000       16.0721700000       15.3553900000 O         0.0000000000         0.0000000000       -16.8815681801     -284.5439917602     -157.3688459665
atom        15.0782800000       14.9540700000       14.0238100000 N         0.0000000000         0.0000000000      -115.1670076191      -80.7525171104      272.9063238249
atom        16.3965700000       15.0084400000       14.7335000000 N         0.0000000000         0.0000000000         1.7192592944      -11.9270335967        6.1668403125
energy     -1405.5304683615
charge 0
end
begin
comment generated by PY
lattice        30.0000000000         0.0000000000         0.0000000000
lattice         0.0000000000        30.0000000000         0.0000000000
lattice         0.0000000000         0.0000000000        30.0000000000
atom        14.2497800000       14.1925300000       15.7923500000 H         0.0000000000         0.0000000000       -25.9943280741       47.1905387141     -102.7159972638
atom        13.1642100000       14.5276100000       14.2302400000 H         0.0000000000         0.0000000000        99.8263485703       13.4471531218       74.0714650065
atom        14.0763900000       14.5995800000       14.8136200000 C         0.0000000000         0.0000000000       188.5968790394       22.8171378042     -126.9456775442
atom        17.1122600000       14.0230100000       14.4740600000 O         0.0000000000         0.0000000000      -211.4856762072      230.0487554400       55.4777262914
atom        16.5999100000       16.0072400000       15.2977400000 O         0.0000000000         0.0000000000       -70.5545038016     -243.0666898219     -135.4423818138
atom        15.0640900000       14.9653300000       14.1437900000 N         0.0000000000         0.0000000000      -118.7926394237      -88.8295484924      198.5010536901
atom        16.3153000000       14.9740900000       14.7180700000 N         0.0000000000         0.0000000000       138.4387949904       18.3854087358       37.0831677114
energy     -1429.4238517722
charge 0
end
begin
comment generated by PY
lattice        30.0000000000         0.0000000000         0.0000000000
lattice         0.0000000000        30.0000000000         0.0000000000
lattice         0.0000000000         0.0000000000        30.0000000000
atom        13.7975600000       14.3409100000       15.9140600000 H         0.0000000000         0.0000000000        34.4481868579       17.7009733282     -126.1350966644
atom        12.9408700000       14.6653900000       14.3047800000 H         0.0000000000         0.0000000000       121.1803938964      -13.7622830686       47.9437506117
atom        13.9286300000       14.5508100000       14.8132800000 C         0.0000000000         0.0000000000       147.2951056759      111.6598218946     -105.9648219444
atom        17.2006300000       14.0619500000       14.4846400000 O         0.0000000000         0.0000000000      -227.5725041680      216.1020847825       48.7062561169
atom        16.6810900000       15.9981400000       15.3081000000 O         0.0000000000         0.0000000000       -88.9793084567     -246.5377679717     -144.2002540475
atom        14.9748400000       14.9613000000       14.0968100000 N         0.0000000000         0.0000000000      -162.4222864012     -116.8925589191      220.0278791809
atom        16.3858000000       14.9654100000       14.7274100000 N         0.0000000000         0.0000000000       176.0816751538       31.7266394150       59.5812316393
energy     -1367.2843597570
charge 0
end
begin
comment generated by PY
lattice        30.0000000000         0.0000000000         0.0000000000
lattice         0.0000000000        30.0000000000         0.0000000000
lattice         0.0000000000         0.0000000000        30.0000000000
atom        14.0692500000       14.1831800000       15.7984600000 H         0.0000000000         0.0000000000       -26.9173626938       60.4762589894     -105.1831247337
atom        12.9069600000       14.6486500000       14.3167900000 H         0.0000000000         0.0000000000       110.4998314438       -4.9131886095       54.6641114940
atom        13.8938200000       14.6207200000       14.8015000000 C         0.0000000000         0.0000000000       193.5555649384       -8.2214362607     -138.9448096081
atom        17.1582100000       14.0646200000       14.4418500000 O         0.0000000000         0.0000000000      -135.6670454920      219.5611832515      100.4876386592
atom        16.7130400000       16.0622200000       15.3489300000 O         0.0000000000         0.0000000000       -45.7044272019     -292.6184061385     -136.7430751308
atom        14.8814500000       14.8387100000       14.0305200000 N         0.0000000000         0.0000000000      -191.9113949690      -25.4144329548      226.0636789461
atom        16.5040400000       14.9642000000       14.8134300000 N         0.0000000000         0.0000000000        96.1207738523       51.1486764949       -0.3338978957
energy     -1380.7163119823
charge 0
end
begin
comment generated by PY
lattice        30.0000000000         0.0000000000         0.0000000000
lattice         0.0000000000        30.0000000000         0.0000000000
lattice         0.0000000000         0.0000000000        30.0000000000
atom        14.0252400000       14.7584300000       15.8759800000 H         0.0000000000         0.0000000000         0.5521850665      -20.2884565411     -112.6506297887
atom        12.9883700000       14.3301200000       14.3891100000 H         0.0000000000         0.0000000000       110.1779909521       35.2935945240       43.2081798738
atom        13.9639400000       14.6133400000       14.8132900000 C         0.0000000000         0.0000000000       133.4041319281       46.3900030901     -135.5691562131
atom        17.1582500000       14.0705400000       14.4336600000 O         0.0000000000         0.0000000000      -199.8234855965      235.1621374321      101.8366571749
atom        16.7408400000       16.0401400000       15.3865800000 O         0.0000000000         0.0000000000       -96.5277331155     -276.7918677518     -146.6792146664
atom        14.8745500000       14.8265300000       13.9873700000 N         0.0000000000         0.0000000000      -149.8256054769      -54.4045383903      250.2790799396
atom        16.4162900000       14.9828600000       14.8021000000 N         0.0000000000         0.0000000000       202.0321773589       34.6610814915       -0.3919321915
energy     -1380.2288599162
charge 0
end
begin
comment generated by PY
lattice        30.0000000000         0.0000000000         0.0000000000
lattice         0.0000000000        30.0000000000         0.0000000000
lattice         0.0000000000         0.0000000000        30.0000000000
atom        14.0211100000       14.8421500000       15.9851800000 H         0.0000000000         0.0000000000        15.5554954318      -24.6215529816     -132.4253334743
atom        13.0277100000       14.3848800000       14.4594600000 H         0.0000000000         0.0000000000       121.0246746870       30.0471406992       33.4349150903
atom        14.0270300000       14.6484700000       14.8547200000 C         0.0000000000         0.0000000000       149.3727984731       47.5487265739     -113.7632225652
atom        17.1170800000       14.0805700000       14.4661300000 O         0.0000000000         0.0000000000      -192.5381965946      232.3646604901       31.2939053026
atom        16.6549500000       15.9533000000       15.3906500000 O         0.0000000000         0.0000000000       -90.3200569219     -191.2366194298     -177.7033975349
atom        15.0111700000       14.8121100000       14.0243600000 N         0.0000000000         0.0000000000      -151.9549631216      -23.2305545167      252.2549805735
atom        16.3682400000       15.0450100000       14.6749900000 N         0.0000000000         0.0000000000       148.9126060956      -70.8694909014      106.8950464589
energy     -1393.2842120299
charge 0
end
begin
comment generated by PY
lattice        30.0000000000         0.0000000000         0.0000000000
lattice         0.0000000000        30.0000000000         0.0000000000
lattice         0.0000000000         0.0000000000        30.0000000000
atom        14.3979600000       14.6730900000       15.9485800000 H         0.0000000000         0.0000000000       -40.3963248990        9.4519390564     -118.8453915281
atom        13.1977600000       14.5976400000       14.3389500000 H         0.0000000000         0.0000000000       101.8264717169       14.7612465742       76.7043134335
atom        14.1343200000       14.7251200000       14.8873900000 C         0.0000000000         0.0000000000       193.8013076338       -1.6531232397     -165.8759002360
atom        17.0993600000       14.0327800000       14.4067600000 O         0.0000000000         0.0000000000      -176.8716632707      236.4538474182       84.1475205972
atom        16.5025800000       16.0015300000       15.3772100000 O         0.0000000000         0.0000000000       -29.3584418858     -263.5529555177     -164.6534958729
atom        15.1035100000       14.8274900000       14.0604800000 N         0.0000000000         0.0000000000      -131.2348323021       -3.5523433405      264.7477794545
atom        16.3391800000       14.9602700000       14.7052600000 N         0.0000000000         0.0000000000        82.2451137067        8.0931057113       23.7912318381
energy     -1414.2411739814
charge 0
end
begin
comment generated by PY
lattice        30.0000000000         0.0000000000         0.0000000000
lattice         0.0000000000        30.0000000000         0.0000000000
lattice         0.0000000000         0.0000000000        30.0000000000
atom        14.2742300000       14.7106100000       15.9790900000 H         0.0000000000         0.0000000000        16.7415551149       -4.0769372129     -115.5942734154
atom        13.1162100000       14.9119400000       14.7580300000 H         0.0000000000         0.0000000000       120.4887869443      -22.0276694566      -10.9168721458
atom        14.1750200000       14.7489300000       14.9141800000 C         0.0000000000         0.0000000000       114.5262260603       68.6182357600     -113.6357803773
atom        17.1766900000       14.0378100000       14.4243900000 O         0.0000000000         0.0000000000      -197.5708355399      204.7000649337       81.6049150465
atom        16.3974100000       15.9710300000       15.3345000000 O         0.0000000000         0.0000000000        28.9267440773     -272.8253455276     -132.5764086603
atom        15.0904700000       14.9067600000       14.0282200000 N         0.0000000000         0.0000000000      -138.0366294646      -72.4952689101      289.3984750297
atom        16.3637600000       14.8645400000       14.7111000000 N         0.0000000000         0.0000000000        54.9180595204       98.0872409770        1.6768739659
energy     -1408.0570835016
charge 0
end
begin
comment generated by PY
lattice        30.0000000000         0.0000000000         0.0000000000
lattice         0.0000000000        30.0000000000         0.0000000000
lattice         0.0000000000         0.0000000000        30.0000000000
atom        14.3490200000       14.5038800000       16.0074400000 H         0.0000000000         0.0000000000       -24.7905650128       50.6029241396     -127.8610963759
atom        13.0489300000       14.7932100000       14.5630400000 H         0.0000000000         0.0000000000       125.5378160677        3.4887664379       41.4390742331
atom        14.1081100000       14.8102700000       14.9217600000 C         0.0000000000         0.0000000000       131.6486426831      -56.7232418271     -144.0470855386
atom        17.2416000000       14.0718900000       14.4936400000 O         0.0000000000         0.0000000000      -238.6581135198      210.4414996260        1.8647926327
atom        16.4933000000       15.8944900000       15.3703800000 O         0.0000000000         0.0000000000       -42.0497453716     -210.8238039855     -191.2088293511
atom        14.9693200000       14.8414900000       14.0060100000 N         0.0000000000         0.0000000000       -96.1371944807       13.5014645269      262.1465334152
atom        16.3580300000       14.9489600000       14.6185700000 N         0.0000000000         0.0000000000       144.4536105326      -10.4985371414      157.6574027068
energy     -1393.7078971417
charge 0
end
begin
comment generated by PY
lattice        30.0000000000         0.0000000000         0.0000000000
lattice         0.0000000000        30.0000000000         0.0000000000
lattice         0.0000000000         0.0000000000        30.0000000000