begin
comment generated by PY
lattice        40.0000000000         0.0000000000         0.0000000000
lattice         0.0000000000        40.0000000000         0.0000000000
lattice         0.0000000000         0.0000000000        40.0000000000
atom        20.0000000000       20.0000000000       20.5282000000 N         0.0000000000         0.0000000000         0.0005073321       -0.0009685430        1.8065786506
atom        20.0000000000       20.0000000000       19.4718000000 N         0.0000000000         0.0000000000        -0.0005073321        0.0009685430       -1.8065786506
energy      -480.9230235703
charge 0
end
begin
comment generated by PY
lattice        40.0000000000         0.0000000000         0.0000000000
lattice         0.0000000000        40.0000000000         0.0000000000
lattice         0.0000000000         0.0000000000        40.0000000000
atom        20.0000000000       20.0000000000       20.5416000000 N         0.0000000000         0.0000000000         0.0002536660       -0.0008763008     -113.8733382614
atom        20.0000000000       20.0000000000       19.4584000000 N         0.0000000000         0.0000000000        -0.0002536660        0.0008763008      113.8733382614
energy      -479.3682653070
charge 0
end
begin
comment generated by PY
lattice        40.0000000000         0.0000000000         0.0000000000
lattice         0.0000000000        40.0000000000         0.0000000000
lattice         0.0000000000         0.0000000000        40.0000000000
atom        20.0000000000       20.0000000000       20.5256000000 N         0.0000000000         0.0000000000         0.0004842715       -0.0008763008       27.1025434698
atom        20.0000000000       20.0000000000       19.4744000000 N         0.0000000000         0.0000000000        -0.0004842715        0.0008763008      -27.1025434698
energy      -480.8483586593
charge 0
end
begin
comment generated by PY
lattice        40.0000000000         0.0000000000         0.0000000000
lattice         0.0000000000        40.0000000000         0.0000000000
lattice         0.0000000000         0.0000000000        40.0000000000
atom        20.0000000000       20.0000000000       20.5071000000 N         0.0000000000         0.0000000000         0.0000230605       -0.0014297540      236.7649254048
atom        20.0000000000       20.0000000000       19.4929000000 N         0.0000000000         0.0000000000        -0.0000230605        0.0014297540     -236.7649254048
energy      -476.1228597245
charge 0
end
begin
comment generated by PY
lattice        40.0000000000         0.0000000000         0.0000000000
lattice         0.0000000000        40.0000000000         0.0000000000
lattice         0.0000000000         0.0000000000        40.0000000000
atom        20.0000000000       20.0000000000       20.5285000000 N         0.0000000000         0.0000000000         0.0005073321       -0.0009454825       -1.0491137752
atom        20.0000000000       20.0000000000       19.4715000000 N         0.0000000000         0.0000000000        -0.0005073321        0.0009454825        1.0491137752
energy      -480.9232477150
charge 0
end
begin
comment generated by PY
lattice        40.0000000000         0.0000000000         0.0000000000
lattice         0.0000000000        40.0000000000         0.0000000000
lattice         0.0000000000         0.0000000000        40.0000000000
atom        20.0000000000       20.0000000000       20.5315000000 N         0.0000000000         0.0000000000         0.0002997871       -0.0007840586      -28.8918280284
atom        20.0000000000       20.0000000000       19.4685000000 N         0.0000000000         0.0000000000        -0.0002997871        0.0007840586       28.8918280284
energy      -480.8327332579
charge 0
end
begin
comment generated by PY
lattice        40.0000000000         0.0000000000         0.0000000000
lattice         0.0000000000        40.0000000000         0.0000000000
lattice         0.0000000000         0.0000000000        40.0000000000
atom        20.0000000000       20.0000000000       20.5147000000 N         0.0000000000         0.0000000000         0.0001153027       -0.0005995742      144.0448829494
atom        20.0000000000       20.0000000000       19.4853000000 N         0.0000000000         0.0000000000        -0.0001153027        0.0005995742     -144.0448829494
energy      -479.0160077124
charge 0
end
begin
comment generated by PY
lattice        40.0000000000         0.0000000000         0.0000000000
lattice         0.0000000000        40.0000000000         0.0000000000
lattice         0.0000000000         0.0000000000        40.0000000000
atom        20.0000000000       20.0000000000       20.5360000000 N         0.0000000000         0.0000000000         0.0003228477       -0.0009224219      -68.3993085397
atom        20.0000000000       20.0000000000       19.4640000000 N         0.0000000000         0.0000000000        -0.0003228477        0.0009224219       68.3993085397
energy      -480.3928486856
charge 0
end
begin
comment generated by PY
lattice        40.0000000000         0.0000000000         0.0000000000
lattice         0.0000000000        40.0000000000         0.0000000000
lattice         0.0000000000         0.0000000000        40.0000000000
atom        20.0000000000       20.0000000000       20.5235000000 N         0.0000000000         0.0000000000         0.0003689688       -0.0006687559       48.2530063075
atom        20.0000000000       20.0000000000       19.4765000000 N         0.0000000000         0.0000000000        -0.0003689688        0.0006687559      -48.2530063075
energy      -480.6904095898
charge 0
end
begin
comment generated by PY
lattice        40.0000000000         0.0000000000         0.0000000000
lattice         0.0000000000        40.0000000000         0.0000000000
lattice         0.0000000000         0.0000000000        40.0000000000
atom        20.0000000000       20.0000000000       20.5197000000 N         0.0000000000         0.0000000000         0.0000230605       -0.0001383633       88.1502584667
atom        20.0000000000       20.0000000000       19.4803000000 N         0.0000000000         0.0000000000        -0.0000230605        0.0001383633      -88.1502584667
energy      -480.1730150676
charge 0
end
begin
comment generated by PY
lattice        40.0000000000         0.0000000000         0.0000000000
lattice         0.0000000000        40.0000000000         0.0000000000
lattice         0.0000000000         0.0000000000        40.0000000000
atom        20.0000000000       20.0000000000       20.5451000000 N         0.0000000000         0.0000000000         0.0001383633       -0.0007840586     -140.3044118183
atom        20.0000000000       20.0000000000       19.4549000000 N         0.0000000000         0.0000000000        -0.0001383633        0.0007840586      140.3044118183
energy      -478.4777804242
charge 0
end
begin
comment generated by PY
lattice        40.0000000000         0.0000000000         0.0000000000
lattice         0.0000000000        40.0000000000         0.0000000000
lattice         0.0000000000         0.0000000000        40.0000000000
atom        20.0000000000       20.0000000000       20.5258000000 N         0.0000000000         0.0000000000         0.0004842715       -0.0008993614       25.1216620348
atom        20.0000000000       20.0000000000       19.4742000000 N         0.0000000000         0.0000000000        -0.0004842715        0.0008993614      -25.1216620348
energy      -480.8587982216
charge 0
end
begin
comment generated by PY
lattice        40.0000000000         0.0000000000         0.0000000000
lattice         0.0000000000        40.0000000000         0.0000000000
lattice         0.0000000000         0.0000000000        40.0000000000
atom        20.0000000000       20.0000000000       20.5017000000 N         0.0000000000         0.0000000000        -0.0001383633       -0.0000691816      308.7272816215
atom        20.0000000000       20.0000000000       19.4983000000 N         0.0000000000         0.0000000000         0.0001383633        0.0000691816     -308.7272816215
energy      -473.1829979127
charge 0
end
begin
comment generated by PY
lattice        40.0000000000         0.0000000000         0.0000000000
lattice         0.0000000000        40.0000000000         0.0000000000
lattice         0.0000000000         0.0000000000        40.0000000000
atom        20.0000000000       20.0000000000       20.5151000000 N         0.0000000000         0.0000000000         0.0000922422       -0.0005765137      139.4249618697
atom        20.0000000000       20.0000000000       19.4849000000 N         0.0000000000         0.0000000000        -0.0000922422        0.0005765137     -139.4249618697
energy      -479.1293885427
charge 0
end
begin
comment generated by PY
lattice        40.0000000000         0.0000000000         0.0000000000
lattice         0.0000000000        40.0000000000         0.0000000000
lattice         0.0000000000         0.0000000000        40.0000000000
atom        20.0000000000       20.0000000000       20.5154000000 N         0.0000000000         0.0000000000         0.0000922422       -0.0005765137      135.9769930911
atom        20.0000000000       20.0000000000       19.4846000000 N         0.0000000000         0.0000000000        -0.0000922422        0.0005765137     -135.9769930911
energy      -479.2119956884
charge 0
end
begin
comment generated by PY
lattice        40.0000000000         0.0000000000         0.0000000000
lattice         0.0000000000        40.0000000000         0.0000000000
lattice         0.0000000000         0.0000000000        40.0000000000
atom        20.0000000000       20.0000000000       20.5310000000 N         0.0000000000         0.0000000000         0.0002997871       -0.0007609981      -24.3382677583
atom        20.0000000000       20.0000000000       19.4690000000 N         0.0000000000         0.0000000000        -0.0002997871        0.0007609981       24.3382677583
energy      -480.8593694702
charge 0
end
begin
comment generated by PY
lattice        40.0000000000         0.0000000000         0.0000000000
lattice         0.0000000000        40.0000000000         0.0000000000
lattice         0.0000000000         0.0000000000        40.0000000000
atom        20.0000000000       20.0000000000       20.5444000000 N         0.0000000000         0.0000000000         0.0001614238       -0.0007840586     -135.1326947617
atom        20.0000000000       20.0000000000       19.4556000000 N         0.0000000000         0.0000000000        -0.0001614238        0.0007840586      135.1326947617
energy      -478.6706032938
charge 0
end
begin
comment generated by PY
lattice        40.0000000000         0.0000000000         0.0000000000
lattice         0.0000000000        40.0000000000         0.0000000000
lattice         0.0000000000         0.0000000000        40.0000000000
atom        20.0000000000       20.0000000000       20.5201000000 N         0.0000000000         0.0000000000         0.0000230605       -0.0001383633       83.8505853663
atom        20.0000000000       20.0000000000       19.4799000000 N         0.0000000000         0.0000000000        -0.0000230605        0.0001383633      -83.8505853663
energy      -480.2418207150
charge 0
end
begin
comment generated by PY
lattice        40.0000000000         0.0000000000         0.0000000000
lattice         0.0000000000        40.0000000000         0.0000000000
lattice         0.0000000000         0.0000000000        40.0000000000
atom        20.0000000000       20.0000000000       20.5205000000 N         0.0000000000         0.0000000000         0.0000230605       -0.0001383633       79.5729644175
atom        20.0000000000       20.0000000000       19.4795000000 N         0.0000000000         0.0000000000        -0.0000230605        0.0001383633      -79.5729644175
energy      -480.3071861106
charge 0
end
begin
comment generated by PY
lattice        40.0000000000         0.0000000000         0.0000000000
lattice         0.0000000000        40.0000000000         0.0000000000
lattice         0.0000000000         0.0000000000        40.0000000000
atom        20.0000000000       20.0000000000       20.5437000000 N         0.0000000000         0.0000000000         0.0001614238       -0.0008071192     -129.9035360087
atom        20.0000000000       20.0000000000       19.4563000000 N         0.0000000000         0.0000000000        -0.0001614238        0.0008071192      129.9035360087
energy      -478.8561388753
charge 0
end
begin
comment generated by PY
lattice        40.0000000000         0.0000000000         0.0000000000
lattice         0.0000000000        40.0000000000         0.0000000000
lattice         0.0000000000         0.0000000000        40.0000000000
atom        20.0000000000       20.0000000000       20.5402000000 N         0.0000000000         0.0000000000         0.0002767266       -0.0008993614     -102.8854460327
atom        20.0000000000       20.0000000000       19.4598000000 N         0.0000000000         0.0000000000        -0.0002767266        0.0008993614      102.8854460327
energy      -479.6717988788
charge 0
end
begin
comment generated by PY
lattice        40.0000000000         0.0000000000         0.0000000000
lattice         0.0000000000        40.0000000000         0.0000000000
lattice         0.0000000000         0.0000000000        40.0000000000
atom        20.0000000000       20.0000000000       20.5324000000 N         0.0000000000         0.0000000000         0.0002997871       -0.0008071192      -37.0067028608
atom        20.0000000000       20.0000000000       19.4676000000 N         0.0000000000         0.0000000000        -0.0002997871        0.0008071192       37.0067028608
energy      -480.7733963673
charge 0
end
begin
comment generated by PY
lattice        40.0000000000         0.0000000000         0.0000000000
lattice         0.0000000000        40.0000000000         0.0000000000
lattice         0.0000000000         0.0000000000        40.0000000000
atom        20.0000000000       20.0000000000       20.5326000000 N         0.0000000000         0.0000000000         0.0002997871       -0.0008301797      -38.7947961042
atom        20.0000000000       20.0000000000       19.4674000000 N         0.0000000000         0.0000000000        -0.0002997871        0.0008301797       38.7947961042
energy      -480.7582326382
charge 0
end
begin
comment generated by PY
lattice        40.0000000000         0.0000000000         0.0000000000
lattice         0.0000000000        40.0000000000         0.0000000000
lattice         0.0000000000         0.0000000000        40.0000000000
atom        20.0000000000       20.0000000000       20.5157000000 N         0.0000000000         0.0000000000         0.0000922422       -0.0005765137      132.5432673347
atom        20.0000000000       20.0000000000       19.4843000000 N         0.0000000000         0.0000000000        -0.0000922422        0.0005765137     -132.5432673347
energy      -479.2925464021
charge 0
end
begin
comment generated by PY
lattice        40.0000000000         0.0000000000         0.0000000000
lattice         0.0000000000        40.0000000000         0.0000000000
lattice         0.0000000000         0.0000000000        40.0000000000
atom        20.0000000000       20.0000000000       20.5328000000 N         0.0000000000         0.0000000000         0.0002997871       -0.0008301797      -40.5784239978
atom        20.0000000000       20.0000000000       19.4672000000 N         0.0000000000         0.0000000000        -0.0002997871        0.0008301797       40.5784239978
energy      -480.7423516433
charge 0
end
begin
comment generated by PY
lattice        40.0000000000         0.0000000000         0.0000000000
lattice         0.0000000000        40.0000000000         0.0000000000
lattice         0.0000000000         0.0000000000        40.0000000000
atom        20.0000000000       20.0000000000       20.5325000000 N         0.0000000000         0.0000000000         0.0002997871       -0.0008071192      -37.9014067081
atom        20.0000000000       20.0000000000       19.4675000000 N         0.0000000000         0.0000000000        -0.0002997871        0.0008071192       37.9014067081
energy      -480.7659015456
charge 0
end
begin
comment generated by PY
lattice        40.0000000000         0.0000000000         0.0000000000
lattice         0.0000000000        40.0000000000         0.0000000000
lattice         0.0000000000         0.0000000000        40.0000000000
atom        20.0000000000       20.0000000000       20.5113000000 N         0.0000000000         0.0000000000        -0.0000691816       -0.0005995742      184.3308893645
atom        20.0000000000       20.0000000000       19.4887000000 N         0.0000000000         0.0000000000         0.0000691816        0.0005995742     -184.3308893645
energy      -477.8891166047
charge 0
end
begin
comment generated by PY
lattice        40.0000000000         0.0000000000         0.0000000000
lattice         0.0000000000        40.0000000000         0.0000000000
lattice         0.0000000000         0.0000000000        40.0000000000
atom        20.0000000000       20.0000000000       20.5165000000 N         0.0000000000         0.0000000000         0.0000922422       -0.0005765137      123.4598867361
atom        20.0000000000       20.0000000000       19.4835000000 N         0.0000000000         0.0000000000        -0.0000922422        0.0005765137     -123.4598867361
energy      -479.4973101945
charge 0
end
begin
comment generated by PY
lattice        40.0000000000         0.0000000000         0.0000000000
lattice         0.0000000000        40.0000000000         0.0000000000
lattice         0.0000000000         0.0000000000        40.0000000000
atom        20.0000000000       20.0000000000       20.5223000000 N         0.0000000000         0.0000000000         0.0000230605       -0.0000461211       60.6169079579
atom        20.0000000000       20.0000000000       19.4777000000 N         0.0000000000         0.0000000000        -0.0000230605        0.0000461211      -60.6169079579
energy      -480.5594043917
charge 0
end
begin
comment generated by PY
lattice        40.0000000000         0.0000000000         0.0000000000
lattice         0.0000000000        40.0000000000         0.0000000000
lattice         0.0000000000         0.0000000000        40.0000000000
atom        20.0000000000       20.0000000000       20.5401000000 N         0.0000000000         0.0000000000         0.0002767266       -0.0008993614     -102.0908752237
atom        20.0000000000       20.0000000000       19.4599000000 N         0.0000000000         0.0000000000        -0.0002767266        0.0008993614      102.0908752237
energy      -479.6922974680
charge 0
end
begin
comment generated by PY
lattice        40.0000000000         0.0000000000         0.0000000000
lattice         0.0000000000        40.0000000000         0.0000000000
lattice         0.0000000000         0.0000000000        40.0000000000
atom        20.0000000000       20.0000000000       20.5237000000 N         0.0000000000         0.0000000000         0.0003689688       -0.0006918164       46.2110165490
atom        20.0000000000       20.0000000000       19.4763000000 N         0.0000000000         0.0000000000        -0.0003689688        0.0006918164      -46.2110165490
energy      -480.7092899714
charge 0
end
begin
comment generated by PY
lattice        40.0000000000         0.0000000000         0.0000000000
lattice         0.0000000000        40.0000000000         0.0000000000
lattice         0.0000000000         0.0000000000        40.0000000000
atom        20.0000000000       20.0000000000       20.5254000000 N         0.0000000000         0.0000000000         0.0004612110       -0.0008763008       29.0885128895
atom        20.0000000000       20.0000000000       19.4746000000 N         0.0000000000         0.0000000000        -0.0004612110        0.0008763008      -29.0885128895
energy      -480.8371292744
charge 0
end
begin
comment generated by PY
lattice        40.0000000000         0.0000000000         0.0000000000
lattice         0.0000000000        40.0000000000         0.0000000000
lattice         0.0000000000         0.0000000000        40.0000000000
atom        20.0000000000       20.0000000000       20.5327000000 N         0.0000000000         0.0000000000         0.0002997871       -0.0008301797      -39.6878018675
atom        20.0000000000       20.0000000000       19.4673000000 N         0.0000000000         0.0000000000        -0.0002997871        0.0008301797       39.6878018675
energy      -480.7503791836
charge 0
end
begin
comment generated by PY
lattice        40.0000000000         0.0000000000         0.0000000000
lattice         0.0000000000        40.0000000000         0.0000000000
lattice         0.0000000000         0.0000000000        40.0000000000
atom        20.0000000000       20.0000000000       20.5206000000 N         0.0000000000         0.0000000000         0.0000230605       -0.0001383633       78.5079102918
atom        20.0000000000       20.0000000000       19.4794000000 N         0.0000000000         0.0000000000        -0.0000230605        0.0001383633      -78.5079102918
energy      -480.3229979638
charge 0
end
begin
comment generated by PY
lattice        40.0000000000         0.0000000000         0.0000000000
lattice         0.0000000000        40.0000000000         0.0000000000
lattice         0.0000000000         0.0000000000        40.0000000000
atom        20.0000000000       20.0000000000       20.5405000000 N         0.0000000000         0.0000000000         0.0002767266       -0.0008993614     -105.2609950256
atom        20.0000000000       20.0000000000       19.4595000000 N         0.0000000000         0.0000000000        -0.0002767266        0.0008993614      105.2609950256
energy      -479.6093518927
charge 0
end
begin
comment generated by PY
lattice        40.0000000000         0.0000000000         0.0000000000
lattice         0.0000000000        40.0000000000         0.0000000000
lattice         0.0000000000         0.0000000000        40.0000000000
atom        20.0000000000       20.0000000000       20.5375000000 N         0.0000000000         0.0000000000         0.0003228477       -0.0009454825      -80.9795634153
atom        20.0000000000       20.0000000000       19.4625000000 N         0.0000000000         0.0000000000        -0.0003228477        0.0009454825       80.9795634153
energy      -480.1686928588
charge 0
end
begin
comment generated by PY
lattice        40.0000000000         0.0000000000         0.0000000000
lattice         0.0000000000        40.0000000000         0.0000000000
lattice         0.0000000000         0.0000000000        40.0000000000
atom        20.0000000000       20.0000000000       20.5262000000 N         0.0000000000         0.0000000000         0.0004842715       -0.0009224219       21.1771861794
atom        20.0000000000       20.0000000000       19.4738000000 N         0.0000000000         0.0000000000        -0.0004842715        0.0009224219      -21.1771861794
energy      -480.8773071028
charge 0
end
begin
comment generated by PY
lattice        40.0000000000         0.0000000000         0.0000000000
lattice         0.0000000000        40.0000000000         0.0000000000
lattice         0.0000000000         0.0000000000        40.0000000000
atom        20.0000000000       20.0000000000       20.5247000000 N         0.0000000000         0.0000000000         0.0004381504       -0.0008071192       36.0880332221
atom        20.0000000000       20.0000000000       19.4753000000 N         0.0000000000         0.0000000000        -0.0004381504        0.0008071192      -36.0880332221
energy      -480.7915340616
charge 0
end
begin
comment generated by PY
lattice        40.0000000000         0.0000000000         0.0000000000
lattice         0.0000000000        40.0000000000         0.0000000000
lattice         0.0000000000         0.0000000000        40.0000000000
atom        20.0000000000       20.0000000000       20.5170000000 N         0.0000000000         0.0000000000         0.0000922422       -0.0005765137      117.8356739460
atom        20.0000000000       20.0000000000       19.4830000000 N         0.0000000000         0.0000000000        -0.0000922422        0.0005765137     -117.8356739460
energy      -479.6179374468
charge 0
end
begin
comment generated by PY
lattice        40.0000000000         0.0000000000         0.0000000000
lattice         0.0000000000        40.0000000000         0.0000000000
lattice         0.0000000000         0.0000000000        40.0000000000
atom        20.0000000000       20.0000000000       20.5175000000 N         0.0000000000         0.0000000000         0.0000691816       -0.0005303926      112.2510393239
atom        20.0000000000       20.0000000000       19.4825000000 N         0.0000000000         0.0000000000        -0.0000691816        0.0005303926     -112.2510393239
energy      -479.7329614755
charge 0
end
begin
comment generated by PY
lattice        40.0000000000         0.0000000000         0.0000000000
lattice         0.0000000000        40.0000000000         0.0000000000
lattice         0.0000000000         0.0000000000        40.0000000000
atom        20.0000000000       20.0000000000       20.5421000000 N         0.0000000000         0.0000000000         0.0002536660       -0.0008532403     -117.7370887146
atom        20.0000000000       20.0000000000       19.4579000000 N         0.0000000000         0.0000000000        -0.0002536660        0.0008532403      117.7370887146
energy      -479.2524543095
charge 0
end
begin
comment generated by PY
lattice        40.0000000000         0.0000000000         0.0000000000
lattice         0.0000000000        40.0000000000         0.0000000000
lattice         0.0000000000         0.0000000000        40.0000000000
atom        20.0000000000       20.0000000000       20.5288000000 N         0.0000000000         0.0000000000         0.0005073321       -0.0009454825       -3.8910851750
atom        20.0000000000       20.0000000000       19.4712000000 N         0.0000000000         0.0000000000        -0.0005073321        0.0009454825        3.8910851750
energy      -480.9217569332
charge 0
end
begin
comment generated by PY
lattice        40.0000000000         0.0000000000         0.0000000000
lattice         0.0000000000        40.0000000000         0.0000000000
lattice         0.0000000000         0.0000000000        40.0000000000
atom        20.0000000000       20.0000000000       20.5171000000 N         0.0000000000         0.0000000000         0.0000691816       -0.0005765137      116.7148678117
atom        20.0000000000       20.0000000000       19.4829000000 N         0.0000000000         0.0000000000        -0.0000691816        0.0005765137     -116.7148678117
energy      -479.6413864190
charge 0
end
begin
comment generated by PY
lattice        40.0000000000         0.0000000000         0.0000000000
lattice         0.0000000000        40.0000000000         0.0000000000
lattice         0.0000000000         0.0000000000        40.0000000000
atom        20.0000000000       20.0000000000       20.5316000000 N         0.0000000000         0.0000000000         0.0002997871       -0.0007840586      -29.7989845717
atom        20.0000000000       20.0000000000       19.4684000000 N         0.0000000000         0.0000000000        -0.0002997871        0.0007840586       29.7989845717
energy      -480.8268627350
charge 0
end
begin
comment generated by PY
lattice        40.0000000000         0.0000000000         0.0000000000
lattice         0.0000000000        40.0000000000         0.0000000000
lattice         0.0000000000         0.0000000000        40.0000000000
atom        20.0000000000       20.0000000000       20.5441000000 N         0.0000000000         0.0000000000         0.0001614238       -0.0007840586     -132.8988401824
atom        20.0000000000       20.0000000000       19.4559000000 N         0.0000000000         0.0000000000        -0.0001614238        0.0007840586      132.8988401824
energy      -478.7510146381
charge 0
end
begin
comment generated by PY
lattice        40.0000000000         0.0000000000         0.0000000000
lattice         0.0000000000        40.0000000000         0.0000000000
lattice         0.0000000000         0.0000000000        40.0000000000
atom        20.0000000000       20.0000000000       20.5406000000 N         0.0000000000         0.0000000000         0.0002767266       -0.0008993614     -106.0511696663
atom        20.0000000000       20.0000000000       19.4594000000 N         0.0000000000         0.0000000000        -0.0002767266        0.0008993614      106.0511696663
energy      -479.5882196699
charge 0
end
begin
comment generated by PY
lattice        40.0000000000         0.0000000000         0.0000000000
lattice         0.0000000000        40.0000000000         0.0000000000
lattice         0.0000000000         0.0000000000        40.0000000000
atom        20.0000000000       20.0000000000       20.5242000000 N         0.0000000000         0.0000000000         0.0004150899       -0.0007379375       41.1314999335
atom        20.0000000000       20.0000000000       19.4758000000 N         0.0000000000         0.0000000000        -0.0004150899        0.0007379375      -41.1314999335
energy      -480.7529476355
charge 0
end
begin
comment generated by PY
lattice        40.0000000000         0.0000000000         0.0000000000
lattice         0.0000000000        40.0000000000         0.0000000000
lattice         0.0000000000         0.0000000000        40.0000000000
atom        20.0000000000       20.0000000000       20.5087000000 N         0.0000000000         0.0000000000        -0.0001614238        0.0000461211      216.4464483353