begin
comment generated by PY
lattice        40.0000000000         0.0000000000         0.0000000000
lattice         0.0000000000        40.0000000000         0.0000000000
lattice         0.0000000000         0.0000000000        40.0000000000
atom        20.0000000000       20.0000000000       18.6298000000 O         0.0000000000         0.0000000000        -0.0000000000        0.0001614238      299.7867102145
atom        20.0000000000       20.0000000000       20.1390000000 N         0.0000000000         0.0000000000        -0.0000691816        0.0001383633     -196.1425402569
atom        20.0000000000       20.0000000000       21.2311000000 N         0.0000000000         0.0000000000         0.0000691816       -0.0002997871     -103.6441699576
energy      -595.1101458185
charge 0
end
begin
comment generated by PY
lattice        40.0000000000         0.0000000000         0.0000000000
lattice         0.0000000000        40.0000000000         0.0000000000
lattice         0.0000000000         0.0000000000        40.0000000000
atom        20.1210000000       20.1239000000       18.6776000000 O         0.0000000000         0.0000000000       -35.7155219084      -36.5865653200      101.9566614391
atom        19.6567000000       19.6483000000       20.2844000000 N         0.0000000000         0.0000000000        78.2505887385       80.1553568825      -62.2850947104
atom        20.2051000000       20.2101000000       21.0312000000 N         0.0000000000         0.0000000000       -42.5358668301      -43.5692685020      -39.6709667287
energy      -519.0842827995
charge 0
end
begin
comment generated by PY
lattice        40.0000000000         0.0000000000         0.0000000000
lattice         0.0000000000        40.0000000000         0.0000000000
lattice         0.0000000000         0.0000000000        40.0000000000
atom        20.1237000000       20.1267000000       18.6425000000 O         0.0000000000         0.0000000000       -31.2129974937      -31.9796762428       91.5253666602
atom        19.6596000000       19.6512000000       20.2962000000 N         0.0000000000         0.0000000000        79.8070363676       81.7682598047      -39.6478472463
atom        20.1991000000       20.2040000000       21.0594000000 N         0.0000000000         0.0000000000       -48.5948388738      -49.7884605013      -51.8774194138
energy      -514.4070085536
charge 0
end
begin
comment generated by PY
lattice        40.0000000000         0.0000000000         0.0000000000
lattice         0.0000000000        40.0000000000         0.0000000000
lattice         0.0000000000         0.0000000000        40.0000000000
atom        20.1214000000       20.1243000000       18.6351000000 O         0.0000000000         0.0000000000       -32.9849540373      -33.7968689722       97.0902074854
atom        19.6731000000       19.6650000000       20.2881000000 N         0.0000000000         0.0000000000        70.2640816256       72.0011203471      -61.3359235551
atom        20.1882000000       20.1929000000       21.0761000000 N         0.0000000000         0.0000000000       -37.2794275883      -38.2043513749      -35.7549839303
energy      -516.6981567118
charge 0
end
begin
comment generated by PY
lattice        40.0000000000         0.0000000000         0.0000000000
lattice         0.0000000000        40.0000000000         0.0000000000
lattice         0.0000000000         0.0000000000        40.0000000000
atom        20.1315000000       20.1347000000       18.6070000000 O         0.0000000000         0.0000000000       -24.9084093191      -25.5130132605       74.9384050972
atom        19.6542000000       19.6457000000       20.3187000000 N         0.0000000000         0.0000000000        72.9039565858       74.6895754855      -20.2129347374
atom        20.1955000000       20.2003000000       21.0776000000 N         0.0000000000         0.0000000000       -47.9957242061      -49.1762622251      -54.7254703598
energy      -508.5673648449
charge 0
end
begin
comment generated by PY
lattice        40.0000000000         0.0000000000         0.0000000000
lattice         0.0000000000        40.0000000000         0.0000000000
lattice         0.0000000000         0.0000000000        40.0000000000
atom        20.1243000000       20.1274000000       18.6248000000 O         0.0000000000         0.0000000000       -29.7301811690      -30.4600867160       88.7032458929
atom        19.6610000000       19.6527000000       20.2975000000 N         0.0000000000         0.0000000000        93.8604956790       96.1683386613      -11.2617364435
atom        20.1969000000       20.2018000000       21.0784000000 N         0.0000000000         0.0000000000       -64.1296145100      -65.7079750058      -77.4419094494
energy      -511.9259913744
charge 0
end
begin
comment generated by PY
lattice        40.0000000000         0.0000000000         0.0000000000
lattice         0.0000000000        40.0000000000         0.0000000000
lattice         0.0000000000         0.0000000000        40.0000000000
atom        20.1753000000       20.1796000000       18.4392000000 O         0.0000000000         0.0000000000        -5.9926821590       -6.1455552232       18.5698771449
atom        19.5910000000       19.5810000000       20.4902000000 N         0.0000000000         0.0000000000        42.1253507210       43.1599205768       14.5889456595
atom        20.2087000000       20.2138000000       21.0978000000 N         0.0000000000         0.0000000000       -36.1326085620      -37.0144953536      -33.1581458650
energy      -491.1155263818
charge 0
end
begin
comment generated by PY
lattice        40.0000000000         0.0000000000         0.0000000000
lattice         0.0000000000        40.0000000000         0.0000000000
lattice         0.0000000000         0.0000000000        40.0000000000
atom        20.1134000000       20.1162000000       18.6298000000 O         0.0000000000         0.0000000000       -36.2513870555      -37.1462405879      108.9940124335
atom        19.6873000000       19.6796000000       20.2746000000 N         0.0000000000         0.0000000000        84.2282116670       86.3024983618      -56.1101211995
atom        20.1831000000       20.1876000000       21.0956000000 N         0.0000000000         0.0000000000       -47.9770476721      -49.1565577739      -52.8840681735
energy      -519.5825081168
charge 0
end
begin
comment generated by PY
lattice        40.0000000000         0.0000000000         0.0000000000
lattice         0.0000000000        40.0000000000         0.0000000000
lattice         0.0000000000         0.0000000000        40.0000000000
atom        20.1315000000       20.1348000000       18.5845000000 O         0.0000000000         0.0000000000       -21.6179083818      -22.1495184266       66.6622845017
atom        19.6565000000       19.6480000000       20.3339000000 N         0.0000000000         0.0000000000        55.6591846727       57.0351837900      -30.1591935312
atom        20.1932000000       20.1980000000       21.0881000000 N         0.0000000000         0.0000000000       -34.0415762909      -34.8855653634      -36.5026909705
energy      -506.4628778855
charge 0
end
begin
comment generated by PY
lattice        40.0000000000         0.0000000000         0.0000000000
lattice         0.0000000000        40.0000000000         0.0000000000
lattice         0.0000000000         0.0000000000        40.0000000000
atom        20.1271000000       20.1302000000       18.5756000000 O         0.0000000000         0.0000000000       -21.8040782083      -22.3382312754       68.9434353433
atom        19.6753000000       19.6673000000       20.3327000000 N         0.0000000000         0.0000000000         7.2234063035        7.4005548198     -105.2262196609
atom        20.1795000000       20.1839000000       21.0995000000 N         0.0000000000         0.0000000000        14.5806719048       14.9377764556       36.2836843176
energy      -507.7218704738
charge 0
end
begin
comment generated by PY
lattice        40.0000000000         0.0000000000         0.0000000000
lattice         0.0000000000        40.0000000000         0.0000000000
lattice         0.0000000000         0.0000000000        40.0000000000
atom        20.1254000000       20.1285000000       18.6142000000 O         0.0000000000         0.0000000000       -27.5601219586      -28.2324112815       83.0072538838
atom        19.6665000000       19.6584000000       20.3081000000 N         0.0000000000         0.0000000000        58.8835148538       60.3206803580      -53.1267543054
atom        20.1901000000       20.1948000000       21.0799000000 N         0.0000000000         0.0000000000       -31.3231928952      -32.0881690766      -29.8800995784
energy      -512.0337856403
charge 0
end
begin
comment generated by PY
lattice        40.0000000000         0.0000000000         0.0000000000
lattice         0.0000000000        40.0000000000         0.0000000000
lattice         0.0000000000         0.0000000000        40.0000000000
atom        20.1379000000       20.1413000000       18.5812000000 O         0.0000000000         0.0000000000       -20.7794074114      -21.2839642402       63.7082301178
atom        19.6391000000       19.6302000000       20.3353000000 N         0.0000000000         0.0000000000       106.6535443143      109.2785050719       43.0629381193
atom        20.2033000000       20.2083000000       21.0905000000 N         0.0000000000         0.0000000000       -85.8740369029      -87.9945408316     -106.7712682372
energy      -501.5136420265
charge 0
end
begin
comment generated by PY
lattice        40.0000000000         0.0000000000         0.0000000000
lattice         0.0000000000        40.0000000000         0.0000000000
lattice         0.0000000000         0.0000000000        40.0000000000
atom        20.1433000000       20.1468000000       18.5365000000 O         0.0000000000         0.0000000000       -14.7881133850      -15.1394143697       46.5702595802
atom        19.6361000000       19.6272000000       20.3742000000 N         0.0000000000         0.0000000000        72.9536546579       74.7311560075       22.2539700170
atom        20.2002000000       20.2051000000       21.1027000000 N         0.0000000000         0.0000000000       -58.1663312729      -59.5913685773      -68.8246295972
energy      -498.7430491206
charge 0
end
begin
comment generated by PY
lattice        40.0000000000         0.0000000000         0.0000000000
lattice         0.0000000000        40.0000000000         0.0000000000
lattice         0.0000000000         0.0000000000        40.0000000000
atom        20.1333000000       20.1366000000       18.5906000000 O         0.0000000000         0.0000000000       -21.8546307824      -22.3856981121       66.9520518558
atom        19.6449000000       19.6362000000       20.3324000000 N         0.0000000000         0.0000000000        90.6561266232       92.8802664398       16.0859568811
atom        20.2027000000       20.2077000000       21.0826000000 N         0.0000000000         0.0000000000       -68.8014189014      -70.4953683277      -83.0383087368
energy      -504.3496022553
charge 0
end
begin
comment generated by PY
lattice        40.0000000000         0.0000000000         0.0000000000
lattice         0.0000000000        40.0000000000         0.0000000000
lattice         0.0000000000         0.0000000000        40.0000000000
atom        20.1329000000       20.1362000000       18.6211000000 O         0.0000000000         0.0000000000       -25.7723765819      -26.4016939101       77.2265293137
atom        19.6392000000       19.6303000000       20.3149000000 N         0.0000000000         0.0000000000       113.3070687874      116.0898041398       28.4461157807
atom        20.2089000000       20.2140000000       21.0652000000 N         0.0000000000         0.0000000000       -87.5346152661      -89.6884102297     -105.6725681549
energy      -505.7842400009
charge 0
end
begin
comment generated by PY
lattice        40.0000000000         0.0000000000         0.0000000000
lattice         0.0000000000        40.0000000000         0.0000000000
lattice         0.0000000000         0.0000000000        40.0000000000
atom        20.1372000000       20.1405000000       18.5697000000 O         0.0000000000         0.0000000000       -18.6704668854      -19.1219669980       57.9508149052
atom        19.6389000000       19.6300000000       20.3495000000 N         0.0000000000         0.0000000000        91.1751094565       93.4099954884       29.3028426469
atom        20.2044000000       20.2094000000       21.0894000000 N         0.0000000000         0.0000000000       -72.5051425711      -74.2880284904      -87.2530575522
energy      -501.1663975800
charge 0
end
begin
comment generated by PY
lattice        40.0000000000         0.0000000000         0.0000000000
lattice         0.0000000000        40.0000000000         0.0000000000
lattice         0.0000000000         0.0000000000        40.0000000000
atom        20.1369000000       20.1403000000       18.5243000000 O         0.0000000000         0.0000000000       -14.3449582760      -14.6883022881       46.5617056526
atom        19.6579000000       19.6495000000       20.3760000000 N         0.0000000000         0.0000000000         8.0777865271        8.2734654359      -63.2905620753
atom        20.1857000000       20.1902000000       21.1148000000 N         0.0000000000         0.0000000000         6.2677317489        6.4156468522       16.7294564227
energy      -500.6650743150
charge 0
end
begin
comment generated by PY
lattice        40.0000000000         0.0000000000         0.0000000000
lattice         0.0000000000        40.0000000000         0.0000000000
lattice         0.0000000000         0.0000000000        40.0000000000
atom        20.1354000000       20.1387000000       18.5245000000 O         0.0000000000         0.0000000000       -14.6645703081      -15.0149426975       47.8213374353
atom        19.6568000000       19.6484000000       20.3721000000 N         0.0000000000         0.0000000000        28.7794129234       29.4802891897      -35.7769721143
atom        20.1884000000       20.1931000000       21.1184000000 N         0.0000000000         0.0000000000       -14.1149095547      -14.4655964922      -12.0441422605
energy      -500.8644074087
charge 0
end
begin
comment generated by PY
lattice        40.0000000000         0.0000000000         0.0000000000
lattice         0.0000000000        40.0000000000         0.0000000000
lattice         0.0000000000         0.0000000000        40.0000000000
atom        20.1351000000       20.1384000000       18.6046000000 O         0.0000000000         0.0000000000       -22.2137050517      -22.7523749359       67.1673224024
atom        19.6393000000       19.6304000000       20.3348000000 N         0.0000000000         0.0000000000        83.5613192657       85.6184894838        2.8053558524
atom        20.2063000000       20.2114000000       21.0642000000 N         0.0000000000         0.0000000000       -61.3475142139      -62.8661145478      -69.9730782548
energy      -505.1731206291
charge 0
end
begin
comment generated by PY
lattice        40.0000000000         0.0000000000         0.0000000000
lattice         0.0000000000        40.0000000000         0.0000000000
lattice         0.0000000000         0.0000000000        40.0000000000
atom        20.1333000000       20.1366000000       18.5458000000 O         0.0000000000         0.0000000000       -17.5597291698      -17.9870333270       56.4436103348
atom        19.6501000000       19.6415000000       20.3501000000 N         0.0000000000         0.0000000000        87.8181812053       89.9783038731       33.8996007822
atom        20.1975000000       20.2024000000       21.1161000000 N         0.0000000000         0.0000000000       -70.2587289749      -71.9915705461      -90.3427341776
energy      -500.6202798330
charge 0
end
begin
comment generated by PY
lattice        40.0000000000         0.0000000000         0.0000000000
lattice         0.0000000000        40.0000000000         0.0000000000
lattice         0.0000000000         0.0000000000        40.0000000000
atom        20.1446000000       20.1482000000       18.6069000000 O         0.0000000000         0.0000000000       -19.8445434235      -20.3222396100       60.7991274709
atom        19.6124000000       19.6029000000       20.3517000000 N         0.0000000000         0.0000000000       123.3106399025      126.3214091904       53.0520656265
atom        20.2224000000       20.2278000000       21.0447000000 N         0.0000000000         0.0000000000      -103.4658195395     -105.9998695804     -113.8515930974
energy      -498.6765664228
charge 0
end
begin
comment generated by PY
lattice        40.0000000000         0.0000000000         0.0000000000
lattice         0.0000000000        40.0000000000         0.0000000000
lattice         0.0000000000         0.0000000000        40.0000000000
atom        20.1354000000       20.1388000000       18.5715000000 O         0.0000000000         0.0000000000       -20.0279947908      -20.5172936018       62.5019953371
atom        19.6375000000       19.6286000000       20.3376000000 N         0.0000000000         0.0000000000       122.3736540589      125.3780017461       66.8421086460
atom        20.2077000000       20.2128000000       21.0993000000 N         0.0000000000         0.0000000000      -102.3463362076     -104.8601850838     -129.3439270436
energy      -498.8207965961
charge 0
end
begin
comment generated by PY
lattice        40.0000000000         0.0000000000         0.0000000000
lattice         0.0000000000        40.0000000000         0.0000000000
lattice         0.0000000000         0.0000000000        40.0000000000
atom        20.1375000000       20.1409000000       18.5860000000 O         0.0000000000         0.0000000000       -20.2462118482      -20.7350392545       62.1602938524
atom        19.6326000000       19.6236000000       20.3418000000 N         0.0000000000         0.0000000000       110.1314143053      112.8204773559       45.3683812717
atom        20.2103000000       20.2154000000       21.0785000000 N         0.0000000000         0.0000000000       -89.8853024572      -92.0846381014     -107.5286751241
energy      -500.6873552237
charge 0
end
begin
comment generated by PY
lattice        40.0000000000         0.0000000000         0.0000000000
lattice         0.0000000000        40.0000000000         0.0000000000
lattice         0.0000000000         0.0000000000        40.0000000000
atom        20.1447000000       20.1483000000       18.6051000000 O         0.0000000000         0.0000000000       -18.8098837693      -19.2610455429       56.8035395275
atom        19.6206000000       19.6113000000       20.3615000000 N         0.0000000000         0.0000000000        70.5604925633       72.2816052044       -3.3730251112
atom        20.2140000000       20.2192000000       21.0369000000 N         0.0000000000         0.0000000000       -51.7506087940      -53.0205596615      -53.4305144162
energy      -502.4805486212
charge 0
end
begin
comment generated by PY
lattice        40.0000000000         0.0000000000         0.0000000000
lattice         0.0000000000        40.0000000000         0.0000000000
lattice         0.0000000000         0.0000000000        40.0000000000
atom        20.1271000000       20.1302000000       18.5207000000 O         0.0000000000         0.0000000000       -15.6871347764      -16.0692736361       53.6960760889
atom        19.6825000000       19.6747000000       20.3614000000 N         0.0000000000         0.0000000000       -20.8072899139      -21.3169816101     -121.3019573004
atom        20.1723000000       20.1765000000       21.1335000000 N         0.0000000000         0.0000000000        36.4944116298       37.3862483068       67.6061042721
energy      -502.1191563698
charge 0
end
begin
comment generated by PY
lattice        40.0000000000         0.0000000000         0.0000000000
lattice         0.0000000000        40.0000000000         0.0000000000
lattice         0.0000000000         0.0000000000        40.0000000000
atom        20.1288000000       20.1320000000       18.5775000000 O         0.0000000000         0.0000000000       -21.2144253875      -21.7362033367       66.4270714190
atom        19.6673000000       19.6591000000       20.3365000000 N         0.0000000000         0.0000000000        21.0782163227       21.5992251651      -79.3692719679
atom        20.1855000000       20.1901000000       21.0935000000 N         0.0000000000         0.0000000000         0.1361090648        0.1369781716       12.9423005489
energy      -507.0697700772
charge 0
end
begin
comment generated by PY
lattice        40.0000000000         0.0000000000         0.0000000000
lattice         0.0000000000        40.0000000000         0.0000000000
lattice         0.0000000000         0.0000000000        40.0000000000
atom        20.1256000000       20.1287000000       18.5487000000 O         0.0000000000         0.0000000000       -18.5964408906      -19.0516625492       61.6353936764
atom        19.6868000000       19.6791000000       20.3490000000 N         0.0000000000         0.0000000000       -47.8531154495      -49.0203104334     -180.1043023949
atom        20.1697000000       20.1738000000       21.1139000000 N         0.0000000000         0.0000000000        66.4496563400       68.0716729827      118.4688087184
energy      -503.4421614147
charge 0
end
begin
comment generated by PY
lattice        40.0000000000         0.0000000000         0.0000000000
lattice         0.0000000000        40.0000000000         0.0000000000
lattice         0.0000000000         0.0000000000        40.0000000000
atom        20.1409000000       20.1444000000       18.5941000000 O         0.0000000000         0.0000000000       -18.4597513392      -18.9022577438       55.0168757918
atom        19.6424000000       19.6336000000       20.3641000000 N         0.0000000000         0.0000000000       -17.0308555943      -17.4543044935     -108.1210350087
atom        20.1966000000       20.2014000000       21.0469000000 N         0.0000000000         0.0000000000        35.4904299941       36.3571622373       53.1046592169
energy      -503.4737270980
charge 0
end
begin
comment generated by PY
lattice        40.0000000000         0.0000000000         0.0000000000
lattice         0.0000000000        40.0000000000         0.0000000000
lattice         0.0000000000         0.0000000000        40.0000000000
atom        20.1470000000       20.1506000000       18.6267000000 O         0.0000000000         0.0000000000       -20.4149313868      -20.9070495695       62.1978736827
atom        19.6106000000       19.6011000000       20.3540000000 N         0.0000000000         0.0000000000        96.9036498250       99.2650025114       18.0658189661
atom        20.2214000000       20.2268000000       21.0198000000 N         0.0000000000         0.0000000000       -76.4884953776      -78.3586529418      -80.2629926489
energy      -502.1645522839
charge 0
end
begin
comment generated by PY
lattice        40.0000000000         0.0000000000         0.0000000000
lattice         0.0000000000        40.0000000000         0.0000000000
lattice         0.0000000000         0.0000000000        40.0000000000
atom        20.1439000000       20.1474000000       18.5948000000 O         0.0000000000         0.0000000000       -18.7491112243      -19.1963710820       56.8828970805
atom        19.6222000000       19.6129000000       20.3578000000 N         0.0000000000         0.0000000000        89.0493431848       91.2262358462       20.0422544341
atom        20.2134000000       20.2186000000       21.0524000000 N         0.0000000000         0.0000000000       -70.3001319606      -72.0301647642      -76.9248745751
energy      -501.1885327594
charge 0
end
begin
comment generated by PY
lattice        40.0000000000         0.0000000000         0.0000000000
lattice         0.0000000000        40.0000000000         0.0000000000
lattice         0.0000000000         0.0000000000        40.0000000000
atom        20.1338000000       20.1371000000       18.5561000000 O         0.0000000000         0.0000000000       -17.8472321714      -18.2803820240       56.4605740025
atom        19.6540000000       19.6455000000       20.3532000000 N         0.0000000000         0.0000000000        49.0291532954       50.2269777480      -22.3333399007
atom        20.1930000000       20.1977000000       21.1012000000 N         0.0000000000         0.0000000000       -31.1820980635      -31.9469957240      -34.1268341018
energy      -503.2187689949
charge 0
end
begin
comment generated by PY
lattice        40.0000000000         0.0000000000         0.0000000000
lattice         0.0000000000        40.0000000000         0.0000000000
lattice         0.0000000000         0.0000000000        40.0000000000
atom        20.1395000000       20.1429000000       18.6037000000 O         0.0000000000         0.0000000000       -19.9199929902      -20.3987763099       59.6124011401
atom        19.6375000000       19.6286000000       20.3537000000 N         0.0000000000         0.0000000000        29.5521662174       30.2726427756      -56.4849058916
atom        20.2031000000       20.2081000000       21.0463000000 N         0.0000000000         0.0000000000        -9.6329962877       -9.8744434051       -3.1274952486
energy      -505.0632413068
charge 0
end
begin
comment generated by PY
lattice        40.0000000000         0.0000000000         0.0000000000
lattice         0.0000000000        40.0000000000         0.0000000000
lattice         0.0000000000         0.0000000000        40.0000000000
atom        20.1364000000       20.1397000000       18.5571000000 O         0.0000000000         0.0000000000       -16.7880365229      -17.1901549428       52.4839507249
atom        19.6515000000       19.6430000000       20.3645000000 N         0.0000000000         0.0000000000        17.6703648466       18.0948490957      -60.2528227554
atom        20.1926000000       20.1973000000       21.0888000000 N         0.0000000000         0.0000000000        -0.8829283237       -0.9041941529        7.7690720305
energy      -502.6819520002
charge 0
end
begin
comment generated by PY
lattice        40.0000000000         0.0000000000         0.0000000000
lattice         0.0000000000        40.0000000000         0.0000000000
lattice         0.0000000000         0.0000000000        40.0000000000
atom        20.1401000000       20.1435000000       18.6236000000 O         0.0000000000         0.0000000000       -20.7766390353      -21.2801250038       61.5061685606
atom        19.6346000000       19.6256000000       20.3545000000 N         0.0000000000         0.0000000000         4.8634557413        4.9788923516      -88.6413506827
atom        20.2053000000       20.2103000000       21.0228000000 N         0.0000000000         0.0000000000        15.9123832940       16.3010326523       27.1351821221
energy      -505.8901990906
charge 0
end
begin
comment generated by PY
lattice        40.0000000000         0.0000000000         0.0000000000
lattice         0.0000000000        40.0000000000         0.0000000000
lattice         0.0000000000         0.0000000000        40.0000000000
atom        20.1306000000       20.1338000000       18.5682000000 O         0.0000000000         0.0000000000       -19.4694089379      -19.9451471765       61.2856335506
atom        19.6597000000       19.6513000000       20.3452000000 N         0.0000000000         0.0000000000        37.3699727656       38.2870231038      -46.7046231570
atom        20.1911000000       20.1958000000       21.0953000000 N         0.0000000000         0.0000000000       -17.9002868883      -18.3421759272      -14.5811103936
energy      -505.1758601973
charge 0
end
begin
comment generated by PY
lattice        40.0000000000         0.0000000000         0.0000000000
lattice         0.0000000000        40.0000000000         0.0000000000
lattice         0.0000000000         0.0000000000        40.0000000000
atom        20.1265000000       20.1297000000       18.5369000000 O         0.0000000000         0.0000000000       -17.1769619312      -17.5982467079       57.4945710654
atom        19.6815000000       19.6737000000       20.3548000000 N         0.0000000000         0.0000000000       -23.4988952558      -24.0674287183     -132.1722894720
atom        20.1739000000       20.1781000000       21.1215000000 N         0.0000000000         0.0000000000        40.6764041264       41.6659523657       74.6777184066
energy      -503.2707664215
charge 0
end
begin
comment generated by PY
lattice        40.0000000000         0.0000000000         0.0000000000
lattice         0.0000000000        40.0000000000         0.0000000000
lattice         0.0000000000         0.0000000000        40.0000000000
atom        20.1455000000       20.1490000000       18.5688000000 O         0.0000000000         0.0000000000       -15.0333092499      -15.3905665215       45.1802892685
atom        19.6363000000       19.6274000000       20.3877000000 N         0.0000000000         0.0000000000       -31.7621384155      -32.5533122304     -108.2723455746
atom        20.1974000000       20.2023000000       21.0521000000 N         0.0000000000         0.0000000000        46.7960476654       47.9440587519       63.0914563061
energy      -499.9922615576
charge 0
end
begin
comment generated by PY
lattice        40.0000000000         0.0000000000         0.0000000000
lattice         0.0000000000        40.0000000000         0.0000000000
lattice         0.0000000000         0.0000000000        40.0000000000
atom        20.1405000000       20.1440000000       18.5783000000 O         0.0000000000         0.0000000000       -17.3436464338      -17.7579837753       52.4009818009