begin
comment generated by PY
lattice        40.0000000000         0.0000000000         0.0000000000
lattice         0.0000000000        40.0000000000         0.0000000000
lattice         0.0000000000         0.0000000000        40.0000000000
atom        19.9102000000       19.9953000000       20.0135000000 C         0.0000000000         0.0000000000        27.1514317639        0.1475895765       -0.4205708121
atom        21.2750000000       20.0088000000       19.9749000000 O         0.0000000000         0.0000000000      -258.0422361821       -2.5290257299        7.2393471574
atom        18.7896000000       19.9838000000       20.0464000000 N         0.0000000000         0.0000000000       230.8898044181        2.3814130929       -6.8187963452
energy      -666.6182855463
charge 0
end
begin
comment generated by PY
lattice        40.0000000000         0.0000000000         0.0000000000
lattice         0.0000000000        40.0000000000         0.0000000000
lattice         0.0000000000         0.0000000000        40.0000000000
atom        19.9073000000       19.9877000000       20.0357000000 C         0.0000000000         0.0000000000        28.4771322769        5.8085059043      -17.0114829430
atom        21.2791000000       20.0114000000       19.9673000000 O         0.0000000000         0.0000000000      -258.2756886693       -5.0965200261       14.7572743640
atom        18.7874000000       19.9873000000       20.0360000000 N         0.0000000000         0.0000000000       229.7985563923       -0.7120049387        2.2542115790
energy      -664.6941059725
charge 0
end
begin
comment generated by PY
lattice        40.0000000000         0.0000000000         0.0000000000
lattice         0.0000000000        40.0000000000         0.0000000000
lattice         0.0000000000         0.0000000000        40.0000000000
atom        19.9086000000       20.0168000000       19.9505000000 C         0.0000000000         0.0000000000        17.8245946774      -16.4016247873       47.9650436988
atom        21.2761000000       20.0014000000       19.9964000000 O         0.0000000000         0.0000000000      -258.2351157616        4.8156543510      -14.2419908832
atom        18.7898000000       19.9737000000       20.0758000000 N         0.0000000000         0.0000000000       240.4105210841       11.5859304363      -33.7231128156
energy      -663.9464187513
charge 0
end
begin
comment generated by PY
lattice        40.0000000000         0.0000000000         0.0000000000
lattice         0.0000000000        40.0000000000         0.0000000000
lattice         0.0000000000         0.0000000000        40.0000000000
atom        19.9117000000       19.9828000000       20.0502000000 C         0.0000000000         0.0000000000        36.3208810922        9.5574798531      -28.0350800731
atom        21.2689000000       20.0126000000       19.9638000000 O         0.0000000000         0.0000000000      -255.4217475481       -6.7249336363       19.5686824757
atom        18.7954000000       19.9902000000       20.0276000000 N         0.0000000000         0.0000000000       219.1018664558       -2.8325231563        8.4663675974
energy      -668.7694961714
charge 0
end
begin
comment generated by PY
lattice        40.0000000000         0.0000000000         0.0000000000
lattice         0.0000000000        40.0000000000         0.0000000000
lattice         0.0000000000         0.0000000000        40.0000000000
atom        19.9041000000       20.0128000000       19.9624000000 C         0.0000000000         0.0000000000        40.0000862035      -12.6174146417       36.8688642974
atom        21.2753000000       20.0027000000       19.9928000000 O         0.0000000000         0.0000000000      -256.8589621592        3.4598977722      -10.2697192923
atom        18.7945000000       19.9758000000       20.0697000000 N         0.0000000000         0.0000000000       216.8588759557        9.1574398695      -26.5991750051
energy      -665.9147852118
charge 0
end
begin
comment generated by PY
lattice        40.0000000000         0.0000000000         0.0000000000
lattice         0.0000000000        40.0000000000         0.0000000000
lattice         0.0000000000         0.0000000000        40.0000000000
atom        19.9056000000       19.9805000000       20.0566000000 C         0.0000000000         0.0000000000        39.6437302309       11.0894902081      -32.3331725861
atom        21.2767000000       20.0137000000       19.9606000000 O         0.0000000000         0.0000000000      -256.4329796336       -7.4797193695       21.6963471764
atom        18.7917000000       19.9909000000       20.0256000000 N         0.0000000000         0.0000000000       216.7882724633       -3.6097708385       10.6368354098
energy      -665.4232154464
charge 0
end
begin
comment generated by PY
lattice        40.0000000000         0.0000000000         0.0000000000
lattice         0.0000000000        40.0000000000         0.0000000000
lattice         0.0000000000         0.0000000000        40.0000000000
atom        19.9055000000       20.0104000000       19.9694000000 C         0.0000000000         0.0000000000        53.9663071120      -10.4997706491       30.6877336668
atom        21.2686000000       20.0035000000       19.9903000000 O         0.0000000000         0.0000000000      -254.8472088776        2.6930431896       -7.9999423347
atom        18.8010000000       19.9769000000       20.0666000000 N         0.0000000000         0.0000000000       200.8808787051        7.8067524595      -22.6877613321
energy      -669.4265271148
charge 0
end
begin
comment generated by PY
lattice        40.0000000000         0.0000000000         0.0000000000
lattice         0.0000000000        40.0000000000         0.0000000000
lattice         0.0000000000         0.0000000000        40.0000000000
atom        19.9074000000       19.9712000000       20.0840000000 C         0.0000000000         0.0000000000        50.3723254827       17.7368399644      -51.8789466363
atom        21.2676000000       20.0166000000       19.9521000000 O         0.0000000000         0.0000000000      -252.7862461399      -10.5945751049       30.8882557901
atom        18.8004000000       19.9956000000       20.0119000000 N         0.0000000000         0.0000000000       202.4149206572       -7.1422448595       20.9907139068
energy      -667.8610365406
charge 0
end
begin
comment generated by PY
lattice        40.0000000000         0.0000000000         0.0000000000
lattice         0.0000000000        40.0000000000         0.0000000000
lattice         0.0000000000         0.0000000000        40.0000000000
atom        19.8957000000       20.0044000000       19.9869000000 C         0.0000000000         0.0000000000        66.7437200318       -5.8672539898       17.1509974044
atom        21.2808000000       20.0053000000       19.9851000000 O         0.0000000000         0.0000000000      -256.2471050276        0.6505603046       -2.0464028245
atom        18.7955000000       19.9800000000       20.0574000000 N         0.0000000000         0.0000000000       189.5034080564        5.2166587458      -15.1045505799
energy      -665.3303967962
charge 0
end
begin
comment generated by PY
lattice        40.0000000000         0.0000000000         0.0000000000
lattice         0.0000000000        40.0000000000         0.0000000000
lattice         0.0000000000         0.0000000000        40.0000000000
atom        19.9108000000       19.9896000000       20.0301000000 C         0.0000000000         0.0000000000        13.4551226396        4.3913280417      -12.8111582497
atom        21.2802000000       20.0106000000       19.9695000000 O         0.0000000000         0.0000000000      -259.6772772259       -4.4565524476       12.8907734013
atom        18.7832000000       19.9866000000       20.0383000000 N         0.0000000000         0.0000000000       246.2211545863        0.0651973453       -0.0796251516
energy      -663.6076133719
charge 0
end
begin
comment generated by PY
lattice        40.0000000000         0.0000000000         0.0000000000
lattice         0.0000000000        40.0000000000         0.0000000000
lattice         0.0000000000         0.0000000000        40.0000000000
atom        19.9135000000       19.9777000000       20.0651000000 C         0.0000000000         0.0000000000        42.1800388724       13.3221249828      -39.0132981949
atom        21.2628000000       20.0140000000       19.9596000000 O         0.0000000000         0.0000000000      -252.9960941875       -8.4294916247       24.5810656625
atom        18.8007000000       19.9930000000       20.0196000000 N         0.0000000000         0.0000000000       210.8160553151       -4.8926202976       14.4322625324
energy      -670.7653193926
charge 0
end
begin
comment generated by PY
lattice        40.0000000000         0.0000000000         0.0000000000
lattice         0.0000000000        40.0000000000         0.0000000000
lattice         0.0000000000         0.0000000000        40.0000000000
atom        19.9125000000       20.0180000000       19.9470000000 C         0.0000000000         0.0000000000        14.6421262773      -17.4526525191       51.0740002391
atom        21.2710000000       20.0009000000       19.9980000000 O         0.0000000000         0.0000000000      -257.3343949683        5.2891268111      -15.6544040110
atom        18.7922000000       19.9733000000       20.0770000000 N         0.0000000000         0.0000000000       242.6932686910       12.1634857080      -35.4195462281
energy      -665.6378390962
charge 0
end
begin
comment generated by PY
lattice        40.0000000000         0.0000000000         0.0000000000
lattice         0.0000000000        40.0000000000         0.0000000000
lattice         0.0000000000         0.0000000000        40.0000000000
atom        19.9060000000       19.9714000000       20.0833000000 C         0.0000000000         0.0000000000        29.2926534653       17.8548167612      -52.2159626941
atom        21.2782000000       20.0166000000       19.9519000000 O         0.0000000000         0.0000000000      -255.9627520696      -10.4697685285       30.5277385684
atom        18.7897000000       19.9953000000       20.0128000000 N         0.0000000000         0.0000000000       226.6700986043       -7.3850182327       21.6881241257
energy      -662.8684731996
charge 0
end
begin
comment generated by PY
lattice        40.0000000000         0.0000000000         0.0000000000
lattice         0.0000000000        40.0000000000         0.0000000000
lattice         0.0000000000         0.0000000000        40.0000000000
atom        19.8929000000       20.0151000000       19.9555000000 C         0.0000000000         0.0000000000        71.6195626792      -13.1488574108       38.5168433820
atom        21.2798000000       20.0015000000       19.9961000000 O         0.0000000000         0.0000000000      -255.0496101304        4.2414028097      -12.5568780634
atom        18.7989000000       19.9751000000       20.0719000000 N         0.0000000000         0.0000000000       183.4300243906        8.9074746617      -25.9599453185
energy      -664.6260646334
charge 0
end
begin
comment generated by PY
lattice        40.0000000000         0.0000000000         0.0000000000
lattice         0.0000000000        40.0000000000         0.0000000000
lattice         0.0000000000         0.0000000000        40.0000000000
atom        19.9058000000       19.9923000000       20.0224000000 C         0.0000000000         0.0000000000        15.8333677934        2.3307663186       -6.9288690930
atom        21.2867000000       20.0093000000       19.9733000000 O         0.0000000000         0.0000000000      -260.5039508187       -3.4414021931        9.9689813488
atom        18.7801000000       19.9858000000       20.0405000000 N         0.0000000000         0.0000000000       244.6695830253        1.1106358745       -3.0401353164
energy      -661.2180196058
charge 0
end
begin
comment generated by PY
lattice        40.0000000000         0.0000000000         0.0000000000
lattice         0.0000000000        40.0000000000         0.0000000000
lattice         0.0000000000         0.0000000000        40.0000000000
atom        19.9093000000       19.9875000000       20.0363000000 C         0.0000000000         0.0000000000        28.3360698974        6.0048452112      -17.5939716386
atom        21.2761000000       20.0112000000       19.9678000000 O         0.0000000000         0.0000000000      -257.8050966088       -5.1351044913       14.8890107016
atom        18.7891000000       19.9877000000       20.0349000000 N         0.0000000000         0.0000000000       229.4690267113       -0.8697393199        2.7049609370
energy      -665.9088842650
charge 0
end
begin
comment generated by PY
lattice        40.0000000000         0.0000000000         0.0000000000
lattice         0.0000000000        40.0000000000         0.0000000000
lattice         0.0000000000         0.0000000000        40.0000000000
atom        19.9194000000       20.0145000000       19.9574000000 C         0.0000000000         0.0000000000         4.6461232137      -15.0902250278       44.0961002880
atom        21.2663000000       20.0022000000       19.9942000000 O         0.0000000000         0.0000000000      -257.0760897513        4.1209629602      -12.2006441281
atom        18.7916000000       19.9749000000       20.0724000000 N         0.0000000000         0.0000000000       252.4299434770       10.9692160676      -31.8954061599
energy      -667.5493537861
charge 0
end
begin
comment generated by PY
lattice        40.0000000000         0.0000000000         0.0000000000
lattice         0.0000000000        40.0000000000         0.0000000000
lattice         0.0000000000         0.0000000000        40.0000000000
atom        19.9149000000       19.9716000000       20.0829000000 C         0.0000000000         0.0000000000        30.1517168208       17.9603528802      -52.6486135531
atom        21.2641000000       20.0164000000       19.9525000000 O         0.0000000000         0.0000000000      -253.2258066625      -10.5673292903       30.8684180987
atom        18.7981000000       19.9954000000       20.0124000000 N         0.0000000000         0.0000000000       223.0750898417       -7.3930635899       21.7801954544
energy      -668.6493337015
charge 0
end
begin
comment generated by PY
lattice        40.0000000000         0.0000000000         0.0000000000
lattice         0.0000000000        40.0000000000         0.0000000000
lattice         0.0000000000         0.0000000000        40.0000000000
atom        19.9300000000       20.0245000000       19.9280000000 C         0.0000000000         0.0000000000        -8.6704945277      -23.5359700884       68.9046756120
atom        21.2512000000       19.9987000000       20.0045000000 O         0.0000000000         0.0000000000      -251.2702220424        7.7468460891      -22.8567684331
atom        18.7998000000       19.9703000000       20.0859000000 N         0.0000000000         0.0000000000       259.9407165701       15.7890839993      -46.0479371788
energy      -670.8340938896
charge 0
end
begin
comment generated by PY
lattice        40.0000000000         0.0000000000         0.0000000000
lattice         0.0000000000        40.0000000000         0.0000000000
lattice         0.0000000000         0.0000000000        40.0000000000
atom        19.9072000000       19.9649000000       20.1023000000 C         0.0000000000         0.0000000000        42.7556475995       22.3597988460      -65.3939013094
atom        21.2687000000       20.0187000000       19.9459000000 O         0.0000000000         0.0000000000      -252.2945920181      -12.6608812472       36.9311893622
atom        18.7994000000       19.9985000000       20.0033000000 N         0.0000000000         0.0000000000       209.5389444186       -9.6988675988       28.4627119472
energy      -665.6990961836
charge 0
end
begin
comment generated by PY
lattice        40.0000000000         0.0000000000         0.0000000000
lattice         0.0000000000        40.0000000000         0.0000000000
lattice         0.0000000000         0.0000000000        40.0000000000
atom        19.8969000000       20.0124000000       19.9635000000 C         0.0000000000         0.0000000000        42.0744691861      -12.1741494620       35.5799534801
atom        21.2856000000       20.0026000000       19.9929000000 O         0.0000000000         0.0000000000      -257.9203952608        3.2886260812       -9.7476516393
atom        18.7890000000       19.9762000000       20.0686000000 N         0.0000000000         0.0000000000       215.8459260747        8.8854883809      -25.8323218408
energy      -661.8539254816
charge 0
end
begin
comment generated by PY
lattice        40.0000000000         0.0000000000         0.0000000000
lattice         0.0000000000        40.0000000000         0.0000000000
lattice         0.0000000000         0.0000000000        40.0000000000
atom        19.9259000000       19.9611000000       20.1134000000 C         0.0000000000         0.0000000000         6.3683299449       26.7162026633      -78.0978414295
atom        21.2531000000       20.0196000000       19.9432000000 O         0.0000000000         0.0000000000      -249.4686800496      -14.2522058431       41.5938034918
atom        18.8012000000       20.0008000000       19.9968000000 N         0.0000000000         0.0000000000       243.0993270442      -12.4640068202       36.5040379377
energy      -669.2359516165
charge 0
end
begin
comment generated by PY
lattice        40.0000000000         0.0000000000         0.0000000000
lattice         0.0000000000        40.0000000000         0.0000000000
lattice         0.0000000000         0.0000000000        40.0000000000
atom        19.9124000000       20.0231000000       19.9322000000 C         0.0000000000         0.0000000000        36.4234245639      -20.4620774160       59.9091584410
atom        21.2591000000       19.9993000000       20.0028000000 O         0.0000000000         0.0000000000      -252.2753487679        7.0829446411      -20.8998365863
atom        18.8059000000       19.9709000000       20.0842000000 N         0.0000000000         0.0000000000       215.8519242040       13.3790997144      -39.0093049153
energy      -670.4932044066
charge 0
end
begin
comment generated by PY
lattice        40.0000000000         0.0000000000         0.0000000000
lattice         0.0000000000        40.0000000000         0.0000000000
lattice         0.0000000000         0.0000000000        40.0000000000
atom        19.9022000000       19.9680000000       20.0934000000 C         0.0000000000         0.0000000000        40.1355361685       20.0118728965      -58.5835365161
atom        21.2786000000       20.0179000000       19.9482000000 O         0.0000000000         0.0000000000      -254.5057934528      -11.5445353254       33.6963274511
atom        18.7925000000       19.9968000000       20.0084000000 N         0.0000000000         0.0000000000       214.3712572843       -8.4673075711       24.8872090650
energy      -662.3803129852
charge 0
end
begin
comment generated by PY
lattice        40.0000000000         0.0000000000         0.0000000000
lattice         0.0000000000        40.0000000000         0.0000000000
lattice         0.0000000000         0.0000000000        40.0000000000
atom        19.8911000000       20.0302000000       19.9113000000 C         0.0000000000         0.0000000000        86.9910209008      -22.7599475387       66.6373155570
atom        21.2692000000       19.9966000000       20.0105000000 O         0.0000000000         0.0000000000      -250.5336339822        9.2522931522      -27.2267252597
atom        18.8127000000       19.9677000000       20.0934000000 N         0.0000000000         0.0000000000       163.5426130815       13.5076343866      -39.4106033578
energy      -665.8420017057
charge 0
end
begin
comment generated by PY
lattice        40.0000000000         0.0000000000         0.0000000000
lattice         0.0000000000        40.0000000000         0.0000000000
lattice         0.0000000000         0.0000000000        40.0000000000
atom        19.9242000000       19.9738000000       20.0763000000 C         0.0000000000         0.0000000000        14.1340681793       16.7220548783      -48.9002361519
atom        21.2568000000       20.0159000000       19.9540000000 O         0.0000000000         0.0000000000      -252.0619081045       -9.9957537875       29.1363390360
atom        18.7984000000       19.9941000000       20.0163000000 N         0.0000000000         0.0000000000       237.9278399251       -6.7263410908       19.7638971159
energy      -671.2826710115
charge 0
end
begin
comment generated by PY
lattice        40.0000000000         0.0000000000         0.0000000000
lattice         0.0000000000        40.0000000000         0.0000000000
lattice         0.0000000000         0.0000000000        40.0000000000
atom        19.9225000000       20.0053000000       19.9843000000 C         0.0000000000         0.0000000000        -0.1833516088       -8.0154382090       23.3713046600
atom        21.2666000000       20.0057000000       19.9838000000 O         0.0000000000         0.0000000000      -257.8471112821        0.8662159410       -2.6485103746
atom        18.7887000000       19.9787000000       20.0613000000 N         0.0000000000         0.0000000000       258.0304628909        7.1491912680      -20.7228642854
energy      -668.1665654862
charge 0
end
begin
comment generated by PY
lattice        40.0000000000         0.0000000000         0.0000000000
lattice         0.0000000000        40.0000000000         0.0000000000
lattice         0.0000000000         0.0000000000        40.0000000000
atom        19.8961000000       20.0038000000       19.9886000000 C         0.0000000000         0.0000000000        49.2844772985       -5.8238940206       17.1344296462
atom        21.2864000000       20.0066000000       19.9814000000 O         0.0000000000         0.0000000000      -257.9249339192        0.2348451408       -0.8769770371
atom        18.7888000000       19.9791000000       20.0603000000 N         0.0000000000         0.0000000000       208.6404566207        5.5890879404      -16.2574826091
energy      -662.5689250061
charge 0
end
begin
comment generated by PY
lattice        40.0000000000         0.0000000000         0.0000000000
lattice         0.0000000000        40.0000000000         0.0000000000
lattice         0.0000000000         0.0000000000        40.0000000000
atom        19.8961000000       19.9854000000       20.0423000000 C         0.0000000000         0.0000000000        61.5012423974        7.2903053229      -21.2034219333
atom        21.2835000000       20.0131000000       19.9624000000 O         0.0000000000         0.0000000000      -256.1583579340       -5.9138753476       17.1113589968
atom        18.7920000000       19.9874000000       20.0359000000 N         0.0000000000         0.0000000000       194.6571155366       -1.3764480359        4.0920629365
energy      -663.8107614590
charge 0
end
begin
comment generated by PY
lattice        40.0000000000         0.0000000000         0.0000000000
lattice         0.0000000000        40.0000000000         0.0000000000
lattice         0.0000000000         0.0000000000        40.0000000000
atom        19.9113000000       20.0059000000       19.9823000000 C         0.0000000000         0.0000000000        42.0521017459       -7.5768752077       22.2786594767
atom        21.2653000000       20.0058000000       19.9836000000 O         0.0000000000         0.0000000000      -254.9398200100        1.0362726606       -3.2253606077
atom        18.7998000000       19.9781000000       20.0631000000 N         0.0000000000         0.0000000000       212.8877182641        6.5405975471      -19.0532918690
energy      -670.8041409896
charge 0
end
begin
comment generated by PY
lattice        40.0000000000         0.0000000000         0.0000000000
lattice         0.0000000000        40.0000000000         0.0000000000
lattice         0.0000000000         0.0000000000        40.0000000000
atom        19.9171000000       19.9765000000       20.0683000000 C         0.0000000000         0.0000000000         6.8616332447       14.5920528040      -42.6004161842
atom        21.2722000000       20.0151000000       19.9565000000 O         0.0000000000         0.0000000000      -257.4233194949       -8.9891815972       26.1203987901
atom        18.7870000000       19.9927000000       20.0203000000 N         0.0000000000         0.0000000000       250.5626862502       -5.6028712068       16.4799643336
energy      -665.0648094304
charge 0
end
begin
comment generated by PY
lattice        40.0000000000         0.0000000000         0.0000000000
lattice         0.0000000000        40.0000000000         0.0000000000
lattice         0.0000000000         0.0000000000        40.0000000000
atom        19.8974000000       20.0018000000       19.9945000000 C         0.0000000000         0.0000000000        30.0006972894       -4.7181479308       13.8043821634
atom        21.2922000000       20.0069000000       19.9805000000 O         0.0000000000         0.0000000000      -259.7926957579       -0.3837936008        0.9530723293
atom        18.7810000000       19.9804000000       20.0563000000 N         0.0000000000         0.0000000000       229.7919984685        5.1019425316      -14.7574075533
energy      -659.5802220709
charge 0
end
begin
comment generated by PY
lattice        40.0000000000         0.0000000000         0.0000000000
lattice         0.0000000000        40.0000000000         0.0000000000
lattice         0.0000000000         0.0000000000        40.0000000000
atom        19.9236000000       19.9772000000       20.0666000000 C         0.0000000000         0.0000000000         0.2297888757       14.2176494893      -41.7378941517
atom        21.2653000000       20.0151000000       19.9563000000 O         0.0000000000         0.0000000000      -256.1265550066       -8.8815616555       25.9401019702
atom        18.7893000000       19.9921000000       20.0221000000 N         0.0000000000         0.0000000000       255.8977661310       -5.3360878338       15.7978221814
energy      -667.5508937830
charge 0
end
begin
comment generated by PY
lattice        40.0000000000         0.0000000000         0.0000000000
lattice         0.0000000000        40.0000000000         0.0000000000
lattice         0.0000000000         0.0000000000        40.0000000000
atom        19.9123000000       20.0162000000       19.9524000000 C         0.0000000000         0.0000000000        43.3068275700      -15.1161531296       44.2399373775
atom        21.2596000000       20.0021000000       19.9945000000 O         0.0000000000         0.0000000000      -252.6750622217        4.6407103249      -13.7310227308
atom        18.8054000000       19.9736000000       20.0763000000 N         0.0000000000         0.0000000000       209.3682346517       10.4754558652      -30.5089246467
energy      -671.8961973797
charge 0
end
begin
comment generated by PY
lattice        40.0000000000         0.0000000000         0.0000000000
lattice         0.0000000000        40.0000000000         0.0000000000
lattice         0.0000000000         0.0000000000        40.0000000000
atom        19.9308000000       19.9645000000       20.1035000000 C         0.0000000000         0.0000000000        -6.1936441867       24.4148061942      -71.3892965833
atom        21.2530000000       20.0194000000       19.9438000000 O         0.0000000000         0.0000000000      -250.4962951482      -13.3400937980       38.9313652403
atom        18.7971000000       19.9981000000       20.0047000000 N         0.0000000000         0.0000000000       256.6899393349      -11.0747554567       32.4579313430
energy      -669.3947531901
charge 0
end
begin
comment generated by PY
lattice        40.0000000000         0.0000000000         0.0000000000
lattice         0.0000000000        40.0000000000         0.0000000000
lattice         0.0000000000         0.0000000000        40.0000000000
atom        19.9005000000       20.0185000000       19.9456000000 C         0.0000000000         0.0000000000        23.8072363641      -17.4057013434       50.9170253513
atom        21.2847000000       20.0017000000       19.9957000000 O         0.0000000000         0.0000000000      -258.6992977057        5.1299668825      -15.1814900673
atom        18.7869000000       19.9720000000       20.0808000000 N         0.0000000000         0.0000000000       234.8930613416       12.2756614003      -35.7356152840
energy      -660.4123226509
charge 0
end
begin
comment generated by PY
lattice        40.0000000000         0.0000000000         0.0000000000
lattice         0.0000000000        40.0000000000         0.0000000000
lattice         0.0000000000         0.0000000000        40.0000000000
atom        19.8941000000       19.9868000000       20.0382000000 C         0.0000000000         0.0000000000        67.0635440248        6.2739770193      -18.2518369789
atom        21.2847000000       20.0127000000       19.9634000000 O         0.0000000000         0.0000000000      -255.9925270247       -5.4401942223       15.7567109413
atom        18.7924000000       19.9866000000       20.0383000000 N         0.0000000000         0.0000000000       188.9289829998       -0.8337837970        2.4951500982
energy      -663.5693491917
charge 0
end
begin
comment generated by PY
lattice        40.0000000000         0.0000000000         0.0000000000
lattice         0.0000000000        40.0000000000         0.0000000000
lattice         0.0000000000         0.0000000000        40.0000000000
atom        19.9016000000       19.9728000000       20.0792000000 C         0.0000000000         0.0000000000        21.9908226417       16.6630370120      -48.7098979045