begin
comment generated by PY
lattice        40.0000000000         0.0000000000         0.0000000000
lattice         0.0000000000        40.0000000000         0.0000000000
lattice         0.0000000000         0.0000000000        40.0000000000
atom        20.0000000000       20.8518000000       19.9027000000 H         0.0000000000         0.0000000000        -0.0000000000     -145.7283781258        0.0657132800
atom        20.9411000000       19.2217000000       19.9027000000 H         0.0000000000         0.0000000000      -126.1492384789       72.8234414532        0.0670265707
atom        19.0589000000       19.2217000000       19.9027000000 H         0.0000000000         0.0000000000       126.1492384789       72.8234414532        0.0670265707
atom        20.0000000000       19.7650000000       19.9037000000 N         0.0000000000         0.0000000000        -0.0000000000        0.0813973589       -0.1997898820
energy      -548.6104799223
charge 0
end
begin
comment generated by PY
lattice        40.0000000000         0.0000000000         0.0000000000
lattice         0.0000000000        40.0000000000         0.0000000000
lattice         0.0000000000         0.0000000000        40.0000000000
atom        19.9525000000       20.8475000000       19.8636000000 H         0.0000000000         0.0000000000        13.7013925154     -150.7110326781        5.4647298541
atom        21.0046000000       19.3704000000       19.8977000000 H         0.0000000000         0.0000000000      -134.1621162950       30.7968994800       -0.9070786395
atom        18.9740000000       19.3984000000       19.8830000000 H         0.0000000000         0.0000000000       147.0311338532       23.4795994111        1.6631053092
atom        20.0049000000       19.7421000000       19.9082000000 N         0.0000000000         0.0000000000       -26.5703970130       96.4344337871       -6.2207845844
energy      -543.7092392849
charge 0
end
begin
comment generated by PY
lattice        40.0000000000         0.0000000000         0.0000000000
lattice         0.0000000000        40.0000000000         0.0000000000
lattice         0.0000000000         0.0000000000        40.0000000000
atom        20.1739000000       20.8450000000       19.9556000000 H         0.0000000000         0.0000000000       -41.5468929224     -136.3281880369        3.5451091926
atom        20.8719000000       19.1219000000       19.9987000000 H         0.0000000000         0.0000000000      -110.4523548893      106.7005868154      -14.6167842733
atom        19.2405000000       18.9822000000       20.0263000000 H         0.0000000000         0.0000000000        77.0205126183      136.6514796861      -10.3990553466
atom        19.9795000000       19.7898000000       19.8842000000 N         0.0000000000         0.0000000000        74.9787351934     -107.0237784646       21.4707834878
energy      -534.4565067859
charge 0
end
begin
comment generated by PY
lattice        40.0000000000         0.0000000000         0.0000000000
lattice         0.0000000000        40.0000000000         0.0000000000
lattice         0.0000000000         0.0000000000        40.0000000000
atom        20.1280000000       20.8454000000       19.8566000000 H         0.0000000000         0.0000000000       -32.5869939077     -137.6757341733        1.1983486416
atom        20.9162000000       19.1628000000       19.8534000000 H         0.0000000000         0.0000000000      -124.6436889917       93.5606130532        6.4063139618
atom        19.1506000000       19.0603000000       19.8469000000 H         0.0000000000         0.0000000000       102.1782965608      118.1843443836        4.2292298429
atom        19.9861000000       19.7812000000       19.9145000000 N         0.0000000000         0.0000000000        55.0523963386      -74.0691463239      -11.8339155069
energy      -539.2130958248
charge 0
end
begin
comment generated by PY
lattice        40.0000000000         0.0000000000         0.0000000000
lattice         0.0000000000        40.0000000000         0.0000000000
lattice         0.0000000000         0.0000000000        40.0000000000
atom        19.9906000000       20.8698000000       19.9469000000 H         0.0000000000         0.0000000000         2.5608205509     -157.3676347195       -7.6509346533
atom        21.0186000000       19.3527000000       19.7509000000 H         0.0000000000         0.0000000000      -147.7664501127       40.6259375980       13.0577152063
atom        18.9612000000       19.3487000000       19.8052000000 H         0.0000000000         0.0000000000       155.1899729241       42.0433317326        5.8647207445
atom        20.0021000000       19.7453000000       19.9183000000 N         0.0000000000         0.0000000000        -9.9843863018       74.6982653890      -11.2715012974
energy      -533.5568265602
charge 0
end
begin
comment generated by PY
lattice        40.0000000000         0.0000000000         0.0000000000
lattice         0.0000000000        40.0000000000         0.0000000000
lattice         0.0000000000         0.0000000000        40.0000000000
atom        19.9016000000       20.9136000000       19.9727000000 H         0.0000000000         0.0000000000        28.1652257363     -165.6379413997      -10.7750343478
atom        21.0852000000       19.5181000000       19.8990000000 H         0.0000000000         0.0000000000      -152.7241007924        4.3060607468        1.8927231384
atom        18.8855000000       19.6065000000       19.9241000000 H         0.0000000000         0.0000000000       167.9094749917      -20.7404570729       -2.8165696941
atom        20.0091000000       19.7120000000       19.8974000000 N         0.0000000000         0.0000000000       -43.3506699355      182.0723377258       11.6988809035
energy      -504.1252159204
charge 0
end
begin
comment generated by PY
lattice        40.0000000000         0.0000000000         0.0000000000
lattice         0.0000000000        40.0000000000         0.0000000000
lattice         0.0000000000         0.0000000000        40.0000000000
atom        20.0246000000       20.8728000000       20.0677000000 H         0.0000000000         0.0000000000        -6.1442689350     -156.8617233013      -19.5590678042
atom        20.9308000000       19.1690000000       19.8777000000 H         0.0000000000         0.0000000000      -126.7360194007       89.2012302190        6.5199435328
atom        19.0729000000       19.1495000000       19.9085000000 H         0.0000000000         0.0000000000       125.8294520956       94.8006416676        2.9677655118
atom        19.9980000000       19.7725000000       19.8932000000 N         0.0000000000         0.0000000000         7.0508362401      -27.1401285853       10.0713497596
energy      -536.2737381883
charge 0
end
begin
comment generated by PY
lattice        40.0000000000         0.0000000000         0.0000000000
lattice         0.0000000000        40.0000000000         0.0000000000
lattice         0.0000000000         0.0000000000        40.0000000000
atom        20.1025000000       20.8458000000       19.9770000000 H         0.0000000000         0.0000000000       -26.2439631003     -136.8236611230      -16.0089808966
atom        20.9427000000       19.1780000000       19.7195000000 H         0.0000000000         0.0000000000      -133.8943572203       92.1328651083       25.8397401566
atom        19.1033000000       19.1013000000       19.7403000000 H         0.0000000000         0.0000000000       117.4354285653      112.3381624777       20.8173532046
atom        19.9894000000       19.7772000000       19.9230000000 N         0.0000000000         0.0000000000        42.7029117554      -67.6473034025      -30.6480655252
energy      -533.3111818814
charge 0
end
begin
comment generated by PY
lattice        40.0000000000         0.0000000000         0.0000000000
lattice         0.0000000000        40.0000000000         0.0000000000
lattice         0.0000000000         0.0000000000        40.0000000000
atom        19.9953000000       20.8254000000       20.1026000000 H         0.0000000000         0.0000000000         2.8564771824     -146.6459163399      -29.9063610523
atom        21.0999000000       19.4839000000       19.9527000000 H         0.0000000000         0.0000000000      -166.1446349683        6.5726007975       -1.4352061309
atom        18.8907000000       19.5138000000       19.9584000000 H         0.0000000000         0.0000000000       168.2024703429        0.3541980071       -2.8298226711
atom        20.0010000000       19.7273000000       19.8818000000 N         0.0000000000         0.0000000000        -4.9143430965      139.7191944747       34.1713729149
energy      -518.4185789156
charge 0
end
begin
comment generated by PY
lattice        40.0000000000         0.0000000000         0.0000000000
lattice         0.0000000000        40.0000000000         0.0000000000
lattice         0.0000000000         0.0000000000        40.0000000000
atom        19.9421000000       20.8846000000       19.9270000000 H         0.0000000000         0.0000000000        16.2218134116     -155.0366829087       -9.3883491445
atom        20.8316000000       19.0624000000       19.7902000000 H         0.0000000000         0.0000000000       -96.3602378712      117.7796009776       13.6282652389
atom        19.1126000000       19.1242000000       19.7749000000 H         0.0000000000         0.0000000000       114.5722444093      106.4574953463       17.6606483918
atom        20.0081000000       19.7811000000       19.9191000000 N         0.0000000000         0.0000000000       -34.4338699497      -69.2002903547      -21.9005244863
energy      -535.2609072528
charge 0
end
begin
comment generated by PY
lattice        40.0000000000         0.0000000000         0.0000000000
lattice         0.0000000000        40.0000000000         0.0000000000
lattice         0.0000000000         0.0000000000        40.0000000000
atom        20.0580000000       20.8720000000       19.9795000000 H         0.0000000000         0.0000000000       -15.2151980541     -158.6449232920       -9.1807763492
atom        20.9829000000       19.2953000000       19.9558000000 H         0.0000000000         0.0000000000      -139.2664645756       50.4956678890       -4.2394875616
atom        19.0350000000       19.2825000000       19.9372000000 H         0.0000000000         0.0000000000       126.0529726808       54.6173489318       -0.2598299660
atom        19.9946000000       19.7540000000       19.8919000000 N         0.0000000000         0.0000000000        28.4288030094       53.5318695318       13.6800538767
energy      -544.0457324781
charge 0
end
begin
comment generated by PY
lattice        40.0000000000         0.0000000000         0.0000000000
lattice         0.0000000000        40.0000000000         0.0000000000
lattice         0.0000000000         0.0000000000        40.0000000000
atom        19.9421000000       20.8638000000       19.7915000000 H         0.0000000000         0.0000000000        18.5475535469     -157.8011146909       15.0166598784
atom        20.9850000000       19.3085000000       19.8233000000 H         0.0000000000         0.0000000000      -135.5155331779       46.3018783311        3.8265436355
atom        19.0216000000       19.4119000000       19.8453000000 H         0.0000000000         0.0000000000       118.3621030186       14.9477747832        0.9697401282
atom        20.0037000000       19.7444000000       19.9214000000 N         0.0000000000         0.0000000000        -1.3941633877       96.5514615766      -19.8129236421
energy      -547.0752471090
charge 0
end
begin
comment generated by PY
lattice        40.0000000000         0.0000000000         0.0000000000
lattice         0.0000000000        40.0000000000         0.0000000000
lattice         0.0000000000         0.0000000000        40.0000000000
atom        19.8673000000       20.8588000000       19.9414000000 H         0.0000000000         0.0000000000        33.4587328266     -143.5678200900       -0.3089601539
atom        20.7357000000       18.9878000000       19.9515000000 H         0.0000000000         0.0000000000       -65.6237122293      130.3373695557       -2.8936679616
atom        19.1670000000       19.1246000000       19.9330000000 H         0.0000000000         0.0000000000        91.9946976351      103.4395479143       -3.9603690841
atom        20.0164000000       19.7882000000       19.8952000000 N         0.0000000000         0.0000000000       -59.8297082323      -90.2091973800        7.1629871996
energy      -542.4059184890
charge 0
end
begin
comment generated by PY
lattice        40.0000000000         0.0000000000         0.0000000000
lattice         0.0000000000        40.0000000000         0.0000000000
lattice         0.0000000000         0.0000000000        40.0000000000
atom        20.0086000000       20.8017000000       19.9452000000 H         0.0000000000         0.0000000000         0.2815644479     -117.0679207878       -2.5098803482
atom        20.9438000000       19.2432000000       19.9432000000 H         0.0000000000         0.0000000000      -126.5279009425       64.2851976370       -2.5052144618
atom        19.0358000000       19.2786000000       19.9541000000 H         0.0000000000         0.0000000000       130.8822383095       59.1141169196       -4.1823976838
atom        20.0008000000       19.7630000000       19.8941000000 N         0.0000000000         0.0000000000        -4.6359558149       -6.3314707083        9.1974824938
energy      -556.8738167148
charge 0
end
begin
comment generated by PY
lattice        40.0000000000         0.0000000000         0.0000000000
lattice         0.0000000000        40.0000000000         0.0000000000
lattice         0.0000000000         0.0000000000        40.0000000000
atom        20.1921000000       20.7690000000       19.7918000000 H         0.0000000000         0.0000000000       -54.0112813079     -114.1523816459       15.5337564531
atom        21.0305000000       19.5493000000       19.7788000000 H         0.0000000000         0.0000000000      -139.3052468076      -21.7784691696        9.8808799903
atom        18.9178000000       19.3817000000       19.8767000000 H         0.0000000000         0.0000000000       164.1483115468       39.3666039893       -5.7196440188
atom        19.9900000000       19.7361000000       19.9223000000 N         0.0000000000         0.0000000000        29.1682096292       96.5642237656      -19.6950224246
energy      -535.1853852476
charge 0
end
begin
comment generated by PY
lattice        40.0000000000         0.0000000000         0.0000000000
lattice         0.0000000000        40.0000000000         0.0000000000
lattice         0.0000000000         0.0000000000        40.0000000000
atom        19.8419000000       20.8073000000       19.9347000000 H         0.0000000000         0.0000000000        43.4066054559     -119.5524320328       -2.2548423741
atom        20.8333000000       19.0968000000       19.9060000000 H         0.0000000000         0.0000000000       -90.1153136699       98.0072374505        1.5888286497
atom        19.0534000000       19.2687000000       19.9443000000 H         0.0000000000         0.0000000000       130.3161292460       63.0880982084       -5.3761173071
atom        20.0194000000       19.7738000000       19.8982000000 N         0.0000000000         0.0000000000       -83.6073979714      -41.5428505655        6.0421230315
energy      -553.1448627763
charge 0
end
begin
comment generated by PY
lattice        40.0000000000         0.0000000000         0.0000000000
lattice         0.0000000000        40.0000000000         0.0000000000
lattice         0.0000000000         0.0000000000        40.0000000000
atom        19.9107000000       20.8582000000       19.9414000000 H         0.0000000000         0.0000000000        25.8939745144     -146.3578758277       -5.1801965873
atom        20.8270000000       19.0722000000       19.8709000000 H         0.0000000000         0.0000000000       -93.3000903097      109.5432099757        4.7547829170
atom        19.1213000000       19.2086000000       19.8973000000 H         0.0000000000         0.0000000000       100.2875181647       75.6751261433        1.1265263277
atom        20.0101000000       19.7762000000       19.9036000000 N         0.0000000000         0.0000000000       -32.8814023694      -38.8604602914       -0.7011066573
energy      -550.8690152378
charge 0
end
begin
comment generated by PY
lattice        40.0000000000         0.0000000000         0.0000000000
lattice         0.0000000000        40.0000000000         0.0000000000
lattice         0.0000000000         0.0000000000        40.0000000000
atom        20.2636000000       20.8248000000       19.8212000000 H         0.0000000000         0.0000000000       -74.4774315524     -141.9848705371       11.7705567071
atom        21.0161000000       19.4254000000       19.7572000000 H         0.0000000000         0.0000000000      -153.6097866057       12.0130103206       18.5603937444
atom        19.1031000000       19.2608000000       19.8905000000 H         0.0000000000         0.0000000000        72.0203364394       42.2180343457       -8.6941953019
atom        19.9727000000       19.7496000000       19.9207000000 N         0.0000000000         0.0000000000       156.0668817187       87.7538389314      -21.6368451497
energy      -543.2855075539
charge 0
end
begin
comment generated by PY
lattice        40.0000000000         0.0000000000         0.0000000000
lattice         0.0000000000        40.0000000000         0.0000000000
lattice         0.0000000000         0.0000000000        40.0000000000
atom        20.0717000000       20.8157000000       20.0387000000 H         0.0000000000         0.0000000000       -18.0236999753     -132.1582288571      -15.7780149489
atom        20.9585000000       19.2509000000       19.9753000000 H         0.0000000000         0.0000000000      -136.4143122502       62.1184342637       -9.0576225226
atom        19.0693000000       19.2641000000       19.8280000000 H         0.0000000000         0.0000000000       111.2310330860       58.6822508114       11.9584790875
atom        19.9929000000       19.7625000000       19.8941000000 N         0.0000000000         0.0000000000        43.2070391394       11.3575868425       12.8771483840
energy      -554.6497073209
charge 0
end
begin
comment generated by PY
lattice        40.0000000000         0.0000000000         0.0000000000
lattice         0.0000000000        40.0000000000         0.0000000000
lattice         0.0000000000         0.0000000000        40.0000000000
atom        19.6620000000       20.7814000000       20.0558000000 H         0.0000000000         0.0000000000        91.6070790432     -124.9653706526      -14.3452938034
atom        20.7659000000       19.0513000000       19.8915000000 H         0.0000000000         0.0000000000       -61.4142264477       85.3845399062       11.0079180242
atom        18.9653000000       19.3798000000       19.9404000000 H         0.0000000000         0.0000000000       158.3118325681       32.0254986495       -8.8092154458
atom        20.0434000000       19.7710000000       19.8908000000 N         0.0000000000         0.0000000000      -188.5047851637        7.5553090364       12.1466062250
energy      -533.1006911904
charge 0
end
begin
comment generated by PY
lattice        40.0000000000         0.0000000000         0.0000000000
lattice         0.0000000000        40.0000000000         0.0000000000
lattice         0.0000000000         0.0000000000        40.0000000000
atom        20.0182000000       20.8373000000       19.9007000000 H         0.0000000000         0.0000000000         0.7001595621     -132.6207813773       -5.3418313342
atom        20.8102000000       19.1302000000       19.8657000000 H         0.0000000000         0.0000000000       -76.1328012153       85.1874525071        2.5141267024
atom        19.1069000000       19.1586000000       19.7205000000 H         0.0000000000         0.0000000000       116.5305075515       99.0339210961       23.4584482082
atom        20.0046000000       19.7771000000       19.9195000000 N         0.0000000000         0.0000000000       -41.0979248983      -51.6005922259      -20.6307415764
energy      -554.4205338000
charge 0
end
begin
comment generated by PY
lattice        40.0000000000         0.0000000000         0.0000000000
lattice         0.0000000000        40.0000000000         0.0000000000
lattice         0.0000000000         0.0000000000        40.0000000000
atom        20.3188000000       20.8025000000       20.0549000000 H         0.0000000000         0.0000000000       -81.6976251610     -132.0869045548      -21.3759231620
atom        20.9144000000       19.2786000000       20.0905000000 H         0.0000000000         0.0000000000      -127.1264124514       50.6687024390      -27.1195164842
atom        19.1844000000       19.0943000000       19.8039000000 H         0.0000000000         0.0000000000        76.3695159969       95.1922883354       16.4872688539
atom        19.9702000000       19.7736000000       19.8864000000 N         0.0000000000         0.0000000000       132.4545216155      -13.7741862196       32.0081107923
energy      -543.7323184276
charge 0
end
begin
comment generated by PY
lattice        40.0000000000         0.0000000000         0.0000000000
lattice         0.0000000000        40.0000000000         0.0000000000
lattice         0.0000000000         0.0000000000        40.0000000000
atom        20.1103000000       20.7822000000       19.9733000000 H         0.0000000000         0.0000000000       -26.7030294402     -107.3137482659       -7.5704254062
atom        20.9626000000       19.2782000000       20.0946000000 H         0.0000000000         0.0000000000      -142.1318875681       54.7948805071      -26.1429894583
atom        19.0690000000       19.2755000000       19.8001000000 H         0.0000000000         0.0000000000       108.4467243783       56.0423440775       15.8304625875
atom        19.9899000000       19.7621000000       19.8922000000 N         0.0000000000         0.0000000000        60.3881526300       -3.5233763187       17.8829722770
energy      -557.5138238374
charge 0
end
begin
comment generated by PY
lattice        40.0000000000         0.0000000000         0.0000000000
lattice         0.0000000000        40.0000000000         0.0000000000
lattice         0.0000000000         0.0000000000        40.0000000000
atom        19.8665000000       20.7961000000       19.8951000000 H         0.0000000000         0.0000000000        45.5883119852     -122.4293222334        3.0246773035
atom        20.9794000000       19.2592000000       19.8947000000 H         0.0000000000         0.0000000000      -134.5518577780       59.7354791105       -7.1571131754
atom        18.9856000000       19.5166000000       19.7179000000 H         0.0000000000         0.0000000000       139.2146523344       -5.7192904570       17.9279461739
atom        20.0120000000       19.7453000000       19.9180000000 N         0.0000000000         0.0000000000       -50.2511665416       68.4130566404      -13.7954443019
energy      -547.6407630258
charge 0
end
begin
comment generated by PY
lattice        40.0000000000         0.0000000000         0.0000000000
lattice         0.0000000000        40.0000000000         0.0000000000
lattice         0.0000000000         0.0000000000        40.0000000000
atom        20.1687000000       20.8153000000       19.9324000000 H         0.0000000000         0.0000000000       -37.7884606005     -124.2312324215       -3.0216246317
atom        20.8197000000       19.1777000000       20.0942000000 H         0.0000000000         0.0000000000       -89.4695884013       74.8396671531      -20.8609024010
atom        19.1573000000       19.1210000000       19.8262000000 H         0.0000000000         0.0000000000        89.7419455786      101.3162892666        9.1459069623
atom        19.9896000000       19.7780000000       19.8933000000 N         0.0000000000         0.0000000000        37.5161034232      -51.9247239982       14.7366400704
energy      -558.6745868536
charge 0
end
begin
comment generated by PY
lattice        40.0000000000         0.0000000000         0.0000000000
lattice         0.0000000000        40.0000000000         0.0000000000
lattice         0.0000000000         0.0000000000        40.0000000000
atom        20.1298000000       20.8568000000       19.9661000000 H         0.0000000000         0.0000000000       -30.7861459434     -149.5427430006      -10.4032606938
atom        20.8769000000       19.2172000000       19.9601000000 H         0.0000000000         0.0000000000      -100.5349426427       62.6801003923       -6.7535984793
atom        19.0952000000       19.1731000000       19.7712000000 H         0.0000000000         0.0000000000       114.1766761633       90.2279004987       17.0558523438
atom        19.9927000000       19.7685000000       19.9044000000 N         0.0000000000         0.0000000000        17.1445454833       -3.3653578904        0.1010338899
energy      -551.5247359657
charge 0
end
begin
comment generated by PY
lattice        40.0000000000         0.0000000000         0.0000000000
lattice         0.0000000000        40.0000000000         0.0000000000
lattice         0.0000000000         0.0000000000        40.0000000000
atom        19.9690000000       20.8864000000       19.9752000000 H         0.0000000000         0.0000000000        13.6343454876     -164.0753795031       -8.6622659383
atom        20.9391000000       19.2538000000       20.0106000000 H         0.0000000000         0.0000000000      -119.9473585075       54.5719008148      -11.2739520591
atom        18.9773000000       19.3622000000       19.8122000000 H         0.0000000000         0.0000000000       149.1339786837       38.8626126789       14.6069812973
atom        20.0082000000       19.7502000000       19.8972000000 N         0.0000000000         0.0000000000       -42.8209656638       70.6408560094        5.3292597606
energy      -539.5937501632
charge 0
end
begin
comment generated by PY
lattice        40.0000000000         0.0000000000         0.0000000000
lattice         0.0000000000        40.0000000000         0.0000000000
lattice         0.0000000000         0.0000000000        40.0000000000
atom        20.1561000000       20.9018000000       19.9324000000 H         0.0000000000         0.0000000000       -36.3223634157     -164.9990794501       -8.9095239762
atom        20.8744000000       19.1514000000       19.9242000000 H         0.0000000000         0.0000000000      -109.5385459507       88.3694411464       -2.7706989262
atom        19.1285000000       19.1038000000       19.7421000000 H         0.0000000000         0.0000000000       106.9166680333      110.4854445158       18.9667791410
atom        19.9886000000       19.7749000000       19.9115000000 N         0.0000000000         0.0000000000        38.9442982726      -33.8558062121       -7.2864731780
energy      -535.2899657932
charge 0
end
begin
comment generated by PY
lattice        40.0000000000         0.0000000000         0.0000000000
lattice         0.0000000000        40.0000000000         0.0000000000
lattice         0.0000000000         0.0000000000        40.0000000000
atom        19.8872000000       20.8731000000       20.0735000000 H         0.0000000000         0.0000000000        37.5944030538     -160.7708311422      -24.2117916783
atom        20.9802000000       19.3784000000       20.0117000000 H         0.0000000000         0.0000000000      -113.6740101646       20.8998969125       -4.4712295930
atom        18.9114000000       19.5602000000       19.8735000000 H         0.0000000000         0.0000000000       163.4149460050      -13.1464398986        7.3041444293
atom        20.0158000000       19.7282000000       19.8858000000 N         0.0000000000         0.0000000000       -87.3352988942      153.0172510677       21.3788268421
energy      -527.4273211542
charge 0
end
begin
comment generated by PY
lattice        40.0000000000         0.0000000000         0.0000000000
lattice         0.0000000000        40.0000000000         0.0000000000
lattice         0.0000000000         0.0000000000        40.0000000000
atom        20.1317000000       20.8636000000       19.9128000000 H         0.0000000000         0.0000000000       -29.3792405240     -150.2824381962       -4.4569316635
atom        20.8777000000       19.1646000000       19.9711000000 H         0.0000000000         0.0000000000      -110.5669613906       83.1167755574       -9.0498823092
atom        19.1049000000       19.1470000000       19.7645000000 H         0.0000000000         0.0000000000       112.7174783287       99.1356700056       16.5203226272
atom        19.9918000000       19.7736000000       19.9079000000 N         0.0000000000         0.0000000000        27.2287935860      -31.9699073667       -3.0134965939
energy      -545.2383451874
charge 0
end
begin
comment generated by PY
lattice        40.0000000000         0.0000000000         0.0000000000
lattice         0.0000000000        40.0000000000         0.0000000000
lattice         0.0000000000         0.0000000000        40.0000000000
atom        20.1758000000       20.8113000000       20.0000000000 H         0.0000000000         0.0000000000       -37.8892642341     -119.7067271682      -16.3601090378
atom        20.8676000000       19.1293000000       19.8479000000 H         0.0000000000         0.0000000000      -111.5704542480       98.7796378747        9.3381335455
atom        19.1833000000       19.0902000000       19.7265000000 H         0.0000000000         0.0000000000        86.3505357683      112.5676276215       21.5312187118
atom        19.9838000000       19.7839000000       19.9132000000 N         0.0000000000         0.0000000000        63.1091827138      -91.6405613885      -14.5092962802
energy      -547.8403060937