begin
comment generated by PY
lattice        40.0000000000         0.0000000000         0.0000000000
lattice         0.0000000000        40.0000000000         0.0000000000
lattice         0.0000000000         0.0000000000        40.0000000000
atom        20.0000000000       20.9355000000       19.7477000000 H         0.0000000000         0.0000000000        -0.0001844844     -125.6547840527       44.3218527106
atom        21.0136000000       19.1799000000       19.7477000000 H         0.0000000000         0.0000000000      -108.8236706079       62.8291060519       44.3224598298
atom        18.9864000000       19.1799000000       19.7477000000 H         0.0000000000         0.0000000000       108.8231402153       62.8290138097       44.3223906482
atom        20.0000000000       19.7651000000       21.4020000000 H         0.0000000000         0.0000000000        -0.0001844844       -0.0003050775     -133.3136537954
atom        20.0000000000       19.7651000000       20.1608000000 N         0.0000000000         0.0000000000         0.0008993614       -0.0029799961        0.3470428068
energy      -562.5758203938
charge 0
end
begin
comment generated by PY
lattice        40.0000000000         0.0000000000         0.0000000000
lattice         0.0000000000        40.0000000000         0.0000000000
lattice         0.0000000000         0.0000000000        40.0000000000
atom        19.9135000000       20.8050000000       19.7120000000 H         0.0000000000         0.0000000000        27.0775188415     -130.6610360285       56.4522071443
atom        21.0154000000       19.1817000000       19.7309000000 H         0.0000000000         0.0000000000      -101.2649617282       58.2410192635       43.9378024867
atom        18.8652000000       19.4771000000       19.6457000000 H         0.0000000000         0.0000000000       108.6775919372       12.4688258809       52.1879051929
atom        19.9570000000       20.0184000000       21.4081000000 H         0.0000000000         0.0000000000         8.2428396296      -32.2075607354     -122.2858956838
atom        20.0178000000       19.7349000000       20.1714000000 N         0.0000000000         0.0000000000       -42.7330186802       92.1588516196      -30.2921422007
energy      -560.9466367388
charge 0
end
begin
comment generated by PY
lattice        40.0000000000         0.0000000000         0.0000000000
lattice         0.0000000000        40.0000000000         0.0000000000
lattice         0.0000000000         0.0000000000        40.0000000000
atom        20.3895000000       20.8679000000       19.7146000000 H         0.0000000000         0.0000000000       -52.8068150058      -81.2038211233       26.4352938433
atom        21.1777000000       19.3678000000       20.1003000000 H         0.0000000000         0.0000000000      -142.3542094278       35.1943074672       -5.0607880576
atom        19.1925000000       18.8532000000       20.1193000000 H         0.0000000000         0.0000000000        58.0485462721       82.4276970616      -16.1558417592
atom        20.0950000000       19.7861000000       21.3638000000 H         0.0000000000         0.0000000000       -23.4549513852        9.8160483625     -151.4152030174
atom        19.9389000000       19.7783000000       20.1142000000 N         0.0000000000         0.0000000000       160.5674395467      -46.2341287074      146.1965389910
energy      -542.3642895704
charge 0
end
begin
comment generated by PY
lattice        40.0000000000         0.0000000000         0.0000000000
lattice         0.0000000000        40.0000000000         0.0000000000
lattice         0.0000000000         0.0000000000        40.0000000000
atom        20.1340000000       20.8717000000       19.5465000000 H         0.0000000000         0.0000000000       -29.3631360101     -132.5792342451       66.1590815425
atom        21.0994000000       19.2716000000       19.7316000000 H         0.0000000000         0.0000000000       -86.4025865558       36.9593207540       54.2471212825
atom        19.2184000000       18.9741000000       19.7884000000 H         0.0000000000         0.0000000000       100.8544832700      113.2011636344       28.5383408208
atom        19.1752000000       19.8936000000       21.1637000000 H         0.0000000000         0.0000000000        76.7590119611       -7.1588654616      -59.2758363270
atom        20.0266000000       19.7686000000       20.1905000000 N         0.0000000000         0.0000000000       -61.8478196046      -10.4222846817      -89.6687073187
energy      -538.9230935079
charge 0
end
begin
comment generated by PY
lattice        40.0000000000         0.0000000000         0.0000000000
lattice         0.0000000000        40.0000000000         0.0000000000
lattice         0.0000000000         0.0000000000        40.0000000000
atom        20.2661000000       20.9730000000       20.1993000000 H         0.0000000000         0.0000000000       -39.4325410345      -83.7555345959      -16.9894414628
atom        21.0487000000       19.4894000000       19.7576000000 H         0.0000000000         0.0000000000      -128.3057724328       25.3474531942       85.6232115090
atom        19.5424000000       18.7616000000       19.6637000000 H         0.0000000000         0.0000000000        15.5014121775       91.0038785089       17.4076588733
atom        19.4744000000       19.5239000000       21.2054000000 H         0.0000000000         0.0000000000        93.8786718150       25.0558738361     -120.4885902471
atom        19.9763000000       19.7874000000       20.1479000000 N         0.0000000000         0.0000000000        58.3583294748      -57.6517478827       34.4471813276
energy      -558.1990132443
charge 0
end
begin
comment generated by PY
lattice        40.0000000000         0.0000000000         0.0000000000
lattice         0.0000000000        40.0000000000         0.0000000000
lattice         0.0000000000         0.0000000000        40.0000000000
atom        19.6823000000       20.9729000000       20.0323000000 H         0.0000000000         0.0000000000        10.3968294437     -123.1412780914        5.3093008506
atom        21.1333000000       20.0654000000       19.7393000000 H         0.0000000000         0.0000000000      -126.8881765240      -43.5022951883       62.6210941801
atom        19.7726000000       18.7370000000       19.4162000000 H         0.0000000000         0.0000000000         5.3247754837       98.1686132480       66.0024179453
atom        19.9036000000       19.5003000000       21.4108000000 H         0.0000000000         0.0000000000        14.8200422677       24.8137378357     -131.5360112523
atom        19.9649000000       19.7497000000       20.1642000000 N         0.0000000000         0.0000000000        96.3464562683       43.6613221960       -2.3967517237
energy      -537.8708368923
charge 0
end
begin
comment generated by PY
lattice        40.0000000000         0.0000000000         0.0000000000
lattice         0.0000000000        40.0000000000         0.0000000000
lattice         0.0000000000         0.0000000000        40.0000000000
atom        19.3051000000       20.7454000000       19.9275000000 H         0.0000000000         0.0000000000        88.8718500455     -107.6436268822       26.3742005770
atom        21.2446000000       20.0029000000       20.0974000000 H         0.0000000000         0.0000000000      -116.2744178114      -25.1518543007        3.9777062744
atom        19.4703000000       18.9655000000       19.3813000000 H         0.0000000000         0.0000000000        69.6301867357       82.1693253927       79.5392317451
atom        19.5400000000       19.3943000000       21.2700000000 H         0.0000000000         0.0000000000        58.2826221345       38.7231928824     -114.3469006851
atom        20.0314000000       19.7616000000       20.1586000000 N         0.0000000000         0.0000000000      -100.5102411044       11.9030029078        4.4558020886
energy      -555.3986436880
charge 0
end
begin
comment generated by PY
lattice        40.0000000000         0.0000000000         0.0000000000
lattice         0.0000000000        40.0000000000         0.0000000000
lattice         0.0000000000         0.0000000000        40.0000000000
atom        19.4219000000       20.6451000000       19.3945000000 H         0.0000000000         0.0000000000        48.4082361337      -64.9491114139       76.8446269452
atom        21.1638000000       19.8745000000       20.4178000000 H         0.0000000000         0.0000000000      -132.7205198735        2.3168755036      -22.4248530182
atom        20.1508000000       18.8818000000       19.2859000000 H         0.0000000000         0.0000000000       -22.3738143928      100.6971144723      106.8613525919
atom        19.4767000000       19.1975000000       21.1243000000 H         0.0000000000         0.0000000000        48.1135454988       66.0312726528      -95.3687446661
atom        19.9848000000       19.7980000000       20.1910000000 N         0.0000000000         0.0000000000        58.5724926339     -104.0962312148      -65.9123818528
energy      -551.1334224124
charge 0
end
begin
comment generated by PY
lattice        40.0000000000         0.0000000000         0.0000000000
lattice         0.0000000000        40.0000000000         0.0000000000
lattice         0.0000000000         0.0000000000        40.0000000000
atom        19.1823000000       20.6812000000       19.9432000000 H         0.0000000000         0.0000000000       102.3681427168      -88.6286800505       22.9404712990
atom        20.8659000000       19.9840000000       20.8548000000 H         0.0000000000         0.0000000000       -78.9186717715      -10.8560417542      -91.5650023134
atom        20.1883000000       19.2381000000       19.0569000000 H         0.0000000000         0.0000000000       -12.1626788691       34.1182585704      109.5967878215
atom        19.4330000000       19.4049000000       21.1130000000 H         0.0000000000         0.0000000000        54.3101966594       11.0518013380     -115.0990600275
atom        20.0236000000       19.7474000000       20.1378000000 N         0.0000000000         0.0000000000       -65.5971187355       54.3146388357       74.1268032203
energy      -572.2225942016
charge 0
end
begin
comment generated by PY
lattice        40.0000000000         0.0000000000         0.0000000000
lattice         0.0000000000        40.0000000000         0.0000000000
lattice         0.0000000000         0.0000000000        40.0000000000
atom        19.2150000000       20.7283000000       19.9491000000 H         0.0000000000         0.0000000000        91.0584011086      -98.4059661623       24.3351284542
atom        21.2028000000       19.9146000000       20.4457000000 H         0.0000000000         0.0000000000      -138.9248988544        4.6603522731      -38.4506882050
atom        20.1218000000       19.2080000000       19.0571000000 H         0.0000000000         0.0000000000       -24.8100535931       41.9502585210      116.6387312726
atom        20.0422000000       19.3700000000       21.3877000000 H         0.0000000000         0.0000000000       -18.7593997519       15.6389126676     -105.9890771706
atom        19.9584000000       19.7536000000       20.1469000000 N         0.0000000000         0.0000000000        91.4358710908       36.1565657611        3.4659266489
energy      -536.4206012169
charge 0
end
begin
comment generated by PY
lattice        40.0000000000         0.0000000000         0.0000000000
lattice         0.0000000000        40.0000000000         0.0000000000
lattice         0.0000000000         0.0000000000        40.0000000000
atom        19.6227000000       20.9506000000       20.1956000000 H         0.0000000000         0.0000000000        47.1234176094     -123.2756020305       -5.1034129311
atom        21.1529000000       19.5910000000       19.8640000000 H         0.0000000000         0.0000000000      -122.0015555964       23.9645554954       40.0570800353
atom        19.4764000000       19.2977000000       19.1946000000 H         0.0000000000         0.0000000000        51.9801722392       46.4111844671      115.9042529130
atom        19.6876000000       19.3030000000       21.2640000000 H         0.0000000000         0.0000000000        32.8719387739       39.1137267974     -116.9189585844
atom        20.0043000000       19.7592000000       20.1699000000 N         0.0000000000         0.0000000000        -9.9740570866       13.7861163312      -33.9390514328
energy      -571.9026093322
charge 0
end
begin
comment generated by PY
lattice        40.0000000000         0.0000000000         0.0000000000
lattice         0.0000000000        40.0000000000         0.0000000000
lattice         0.0000000000         0.0000000000        40.0000000000
atom        19.1832000000       20.5105000000       20.5515000000 H         0.0000000000         0.0000000000       105.2259353855      -77.4088603999      -53.6813226064
atom        21.1329000000       20.2528000000       19.9263000000 H         0.0000000000         0.0000000000       -92.7242571126      -44.6383395295       12.1628128974
atom        19.3022000000       19.0196000000       19.6315000000 H         0.0000000000         0.0000000000        80.6502103159       79.1079647621       25.6487809678
atom        19.8566000000       19.0195000000       21.0246000000 H         0.0000000000         0.0000000000        37.8659159169       91.8599999430      -94.6645533245
atom        20.0375000000       19.7835000000       20.1259000000 N         0.0000000000         0.0000000000      -131.0177845058      -48.9207417152      110.5343820657
energy      -576.5692272600
charge 0
end
begin
comment generated by PY
lattice        40.0000000000         0.0000000000         0.0000000000
lattice         0.0000000000        40.0000000000         0.0000000000
lattice         0.0000000000         0.0000000000        40.0000000000
atom        19.4739000000       20.7671000000       20.5847000000 H         0.0000000000         0.0000000000        36.2121827041     -106.6024016549      -28.7294764088
atom        21.0726000000       20.3350000000       19.7988000000 H         0.0000000000         0.0000000000      -120.0995522621      -67.0927214826       37.4136827124
atom        19.5051000000       19.1623000000       19.1976000000 H         0.0000000000         0.0000000000        44.7797807509       78.3045654627      102.4855429287
atom        20.3446000000       18.7031000000       20.6955000000 H         0.0000000000         0.0000000000       -40.9334688643      113.1036670628      -31.4923197037
atom        19.9717000000       19.7717000000       20.1872000000 N         0.0000000000         0.0000000000        80.0410576714      -17.7131813880      -79.6774064681
energy      -552.8359004920
charge 0
end
begin
comment generated by PY
lattice        40.0000000000         0.0000000000         0.0000000000
lattice         0.0000000000        40.0000000000         0.0000000000
lattice         0.0000000000         0.0000000000        40.0000000000
atom        19.1752000000       20.3914000000       20.8086000000 H         0.0000000000         0.0000000000        90.3513677084      -70.1134827009      -64.5944309506
atom        20.9575000000       20.4448000000       20.0641000000 H         0.0000000000         0.0000000000      -104.8566350384      -68.0836917713       -6.7513016091
atom        19.4003000000       19.2393000000       19.2405000000 H         0.0000000000         0.0000000000        69.6747060472       66.5603291510       83.2063000058
atom        20.4800000000       18.7735000000       20.6797000000 H         0.0000000000         0.0000000000       -59.1622166443      113.8451382333      -48.0745507655
atom        19.9991000000       19.7802000000       20.1503000000 N         0.0000000000         0.0000000000         3.9926979270      -42.2082429121       36.2139833194
energy      -574.7833681241
charge 0
end
begin
comment generated by PY
lattice        40.0000000000         0.0000000000         0.0000000000
lattice         0.0000000000        40.0000000000         0.0000000000
lattice         0.0000000000         0.0000000000        40.0000000000
atom        19.0990000000       20.3849000000       20.7447000000 H         0.0000000000         0.0000000000        90.3667417916      -68.6342425100      -35.5755677896
atom        20.6260000000       20.7099000000       19.8556000000 H         0.0000000000         0.0000000000       -72.3197757871     -120.0584693599       24.8125218336
atom        19.2354000000       19.3541000000       19.3073000000 H         0.0000000000         0.0000000000        99.7427380357       45.4114490609       87.9316143779
atom        20.8092000000       18.9169000000       20.5278000000 H         0.0000000000         0.0000000000       -80.6353010328       77.6663856516      -24.6291496198
atom        20.0165000000       19.7432000000       20.1758000000 N         0.0000000000         0.0000000000       -37.1544630074       65.6148771574      -52.5393957415
energy      -567.9212234272
charge 0
end
begin
comment generated by PY
lattice        40.0000000000         0.0000000000         0.0000000000
lattice         0.0000000000        40.0000000000         0.0000000000
lattice         0.0000000000         0.0000000000        40.0000000000
atom        18.9772000000       20.3599000000       20.4233000000 H         0.0000000000         0.0000000000       108.6240626202      -64.3497539142      -14.9437440437
atom        20.9444000000       20.5264000000       19.7892000000 H         0.0000000000         0.0000000000       -96.9578607562      -72.4105636628       28.1733277106
atom        19.6483000000       19.0137000000       19.3461000000 H         0.0000000000         0.0000000000        45.2573899035       82.4823698362       92.2551929258
atom        20.6162000000       19.2141000000       20.9826000000 H         0.0000000000         0.0000000000       -84.1033621162       56.1142895830      -82.7409229712
atom        19.9867000000       19.7612000000       20.1683000000 N         0.0000000000         0.0000000000        27.1797072882       -1.8363649027      -22.7438536214
energy      -579.8216837139
charge 0
end
begin
comment generated by PY
lattice        40.0000000000         0.0000000000         0.0000000000
lattice         0.0000000000        40.0000000000         0.0000000000
lattice         0.0000000000         0.0000000000        40.0000000000
atom        18.8309000000       19.6853000000       20.3167000000 H         0.0000000000         0.0000000000       134.9180233208       30.9054766689      -23.8084151688
atom        20.6163000000       20.8682000000       20.2566000000 H         0.0000000000         0.0000000000       -58.2585763815     -100.6076817344      -15.4772218519
atom        20.0725000000       19.1682000000       19.1714000000 H         0.0000000000         0.0000000000         6.2138242653       75.1204583811      108.7764261913
atom        19.9573000000       18.9315000000       21.1196000000 H         0.0000000000         0.0000000000        20.7136779944       76.3792335230      -89.8201220512
atom        20.0374000000       19.7941000000       20.1452000000 N         0.0000000000         0.0000000000      -103.5869461385      -81.7974937780       20.3293659412
energy      -561.6512779410
charge 0
end
begin
comment generated by PY
lattice        40.0000000000         0.0000000000         0.0000000000
lattice         0.0000000000        40.0000000000         0.0000000000
lattice         0.0000000000         0.0000000000        40.0000000000
atom        18.6757000000       19.5195000000       20.1094000000 H         0.0000000000         0.0000000000       107.8767060302       23.6772740758        5.7637912531
atom        20.4523000000       20.8748000000       20.4551000000 H         0.0000000000         0.0000000000       -64.9155757545     -118.9424722450      -33.2866414626
atom        20.4651000000       19.6618000000       19.0556000000 H         0.0000000000         0.0000000000       -58.6583287323        5.4572890493      132.2354357466
atom        20.7743000000       19.1394000000       20.9924000000 H         0.0000000000         0.0000000000       -80.7831575278       52.6005815705      -85.3543882035
atom        19.9738000000       19.7554000000       20.1632000000 N         0.0000000000         0.0000000000        96.4803559843       37.2073575494      -19.3581803942
energy      -543.2755619979
charge 0
end
begin
comment generated by PY
lattice        40.0000000000         0.0000000000         0.0000000000
lattice         0.0000000000        40.0000000000         0.0000000000
lattice         0.0000000000         0.0000000000        40.0000000000
atom        18.9330000000       19.0968000000       20.5494000000 H         0.0000000000         0.0000000000        89.8429370996       57.9568564258      -31.1540285085
atom        19.9519000000       20.6264000000       20.8669000000 H         0.0000000000         0.0000000000         2.2845450876      -73.2912551877     -105.8824391230
atom        19.6911000000       19.6293000000       19.0945000000 H         0.0000000000         0.0000000000        47.4830647547       36.4357074067       94.7164537001
atom        20.8983000000       19.1418000000       20.7342000000 H         0.0000000000         0.0000000000       -86.5564460783       66.9748475804      -83.8094889236
atom        20.0376000000       19.8055000000       20.1180000000 N         0.0000000000         0.0000000000       -53.0541808636      -88.0762231646      126.1295028551
energy      -563.1941822047
charge 0
end
begin
comment generated by PY
lattice        40.0000000000         0.0000000000         0.0000000000
lattice         0.0000000000        40.0000000000         0.0000000000
lattice         0.0000000000         0.0000000000        40.0000000000
atom        19.2112000000       18.7173000000       20.2327000000 H         0.0000000000         0.0000000000        67.3728078863       94.3558184078        3.2444585380
atom        19.8529000000       20.6801000000       20.9072000000 H         0.0000000000         0.0000000000         6.2788560603     -103.3932204546      -81.1220379663
atom        19.8082000000       20.1481000000       19.0443000000 H         0.0000000000         0.0000000000        20.0118820458      -40.8069732699      140.6970471075
atom        21.2890000000       19.5903000000       20.1595000000 H         0.0000000000         0.0000000000      -125.0272015097       12.6599375407        3.7786613521
atom        19.9885000000       19.7597000000       20.1824000000 N         0.0000000000         0.0000000000        31.3636055172       37.1845077760      -66.5981752919
energy      -555.7544529627
charge 0
end
begin
comment generated by PY
lattice        40.0000000000         0.0000000000         0.0000000000
lattice         0.0000000000        40.0000000000         0.0000000000
lattice         0.0000000000         0.0000000000        40.0000000000
atom        19.7370000000       18.6456000000       20.2147000000 H         0.0000000000         0.0000000000        20.6169622281      139.1569053313       10.9821108133
atom        20.2052000000       20.3501000000       21.1745000000 H         0.0000000000         0.0000000000       -44.4607801239      -56.7806471417      -99.1991948750
atom        19.3632000000       20.1041000000       19.1520000000 H         0.0000000000         0.0000000000        56.1317444607      -17.8181448250      105.4188957802
atom        21.2618000000       19.5857000000       19.9632000000 H         0.0000000000         0.0000000000      -124.6983692613       22.3195243606       11.2607129335
atom        19.9595000000       19.7918000000       20.1709000000 N         0.0000000000         0.0000000000        92.4104426964      -86.8775477253      -28.4624695914
energy      -562.7437544675
charge 0
end
begin
comment generated by PY
lattice        40.0000000000         0.0000000000         0.0000000000
lattice         0.0000000000        40.0000000000         0.0000000000
lattice         0.0000000000         0.0000000000        40.0000000000
atom        19.5568000000       18.6882000000       19.7750000000 H         0.0000000000         0.0000000000        52.8949065669      108.5269227935       50.4739935036
atom        19.9581000000       20.1451000000       21.3703000000 H         0.0000000000         0.0000000000        -0.8857951164      -50.0270980596     -117.1029292466
atom        19.2591000000       20.6055000000       19.5241000000 H         0.0000000000         0.0000000000        86.7469671854      -79.0313088587       55.7501602359
atom        21.0961000000       19.7844000000       20.0427000000 H         0.0000000000         0.0000000000      -113.5328787939        0.8860168948       -4.1535094391
atom        20.0093000000       19.7534000000       20.1561000000 N         0.0000000000         0.0000000000       -25.2232798420       19.6454652905       15.0322831855
energy      -568.2122393075
charge 0
end
begin
comment generated by PY
lattice        40.0000000000         0.0000000000         0.0000000000
lattice         0.0000000000        40.0000000000         0.0000000000
lattice         0.0000000000         0.0000000000        40.0000000000
atom        19.4968000000       18.6743000000       19.8441000000 H         0.0000000000         0.0000000000        41.3225820565      108.9385917845       32.2474491835
atom        19.8394000000       20.1960000000       21.2916000000 H         0.0000000000         0.0000000000        21.1708009854      -55.3785763651     -113.2463078586
atom        19.6397000000       20.7426000000       19.5827000000 H         0.0000000000         0.0000000000        37.7167642791     -116.2654061316       55.0942058186
atom        21.1100000000       19.6040000000       19.8891000000 H         0.0000000000         0.0000000000      -126.4091400436       22.7589145591       37.1944849450
atom        19.9939000000       19.7539000000       20.1635000000 N         0.0000000000         0.0000000000        26.1990657831       39.9464292137      -11.2898690280
energy      -580.5568631348
charge 0
end
begin
comment generated by PY
lattice        40.0000000000         0.0000000000         0.0000000000
lattice         0.0000000000        40.0000000000         0.0000000000
lattice         0.0000000000         0.0000000000        40.0000000000
atom        19.3289000000       18.9015000000       19.7748000000 H         0.0000000000         0.0000000000        83.3104539457      111.8720350024       55.8846096732
atom        19.7261000000       19.8940000000       21.2880000000 H         0.0000000000         0.0000000000        35.6331509243      -12.9614873685     -121.4883050756
atom        19.4906000000       20.6809000000       19.5818000000 H         0.0000000000         0.0000000000        63.1307809120      -89.4955849657       61.8613910174
atom        21.1427000000       19.2231000000       19.8349000000 H         0.0000000000         0.0000000000       -84.4787838827       53.4551558672       29.8884293068
atom        20.0223000000       19.7908000000       20.1727000000 N         0.0000000000         0.0000000000       -97.5957018993      -62.8701085355      -26.1461679823
energy      -575.5938930833
charge 0
end
begin
comment generated by PY
lattice        40.0000000000         0.0000000000         0.0000000000
lattice         0.0000000000        40.0000000000         0.0000000000
lattice         0.0000000000         0.0000000000        40.0000000000
atom        19.2290000000       18.9138000000       19.8358000000 H         0.0000000000         0.0000000000        80.0903315885       83.1933889669       26.3857653431
atom        20.1660000000       19.7693000000       21.3565000000 H         0.0000000000         0.0000000000       -36.9897459153        8.8804817242     -123.1675867271
atom        20.1273000000       20.8403000000       19.5152000000 H         0.0000000000         0.0000000000       -28.9078045907      -95.4096065690       61.4041334631
atom        21.1389000000       19.5586000000       20.1120000000 H         0.0000000000         0.0000000000      -145.2682539296        4.5041106273       -9.6892909103
atom        19.9528000000       19.7635000000       20.1484000000 N         0.0000000000         0.0000000000       131.0754428472       -1.1684747494       45.0668488312
energy      -568.0366408705
charge 0
end
begin
comment generated by PY
lattice        40.0000000000         0.0000000000         0.0000000000
lattice         0.0000000000        40.0000000000         0.0000000000
lattice         0.0000000000         0.0000000000        40.0000000000
atom        19.0742000000       19.0910000000       19.6399000000 H         0.0000000000         0.0000000000       104.1556173531       51.8334456947       48.0068687889
atom        19.6057000000       19.7428000000       21.3371000000 H         0.0000000000         0.0000000000        55.2049059005       12.3812775081     -115.7666840398
atom        19.6359000000       20.6433000000       19.4869000000 H         0.0000000000         0.0000000000        54.3481914604      -89.2587334330       91.2495575806
atom        21.0701000000       19.5300000000       19.9121000000 H         0.0000000000         0.0000000000       -95.6091382334       17.1385991296       27.8820561755
atom        20.0439000000       19.7689000000       20.1801000000 N         0.0000000000         0.0000000000      -118.0995534201        7.9053621007      -51.3717985052
energy      -573.3700705439
charge 0
end
begin
comment generated by PY
lattice        40.0000000000         0.0000000000         0.0000000000
lattice         0.0000000000        40.0000000000         0.0000000000
lattice         0.0000000000         0.0000000000        40.0000000000