begin
comment generated by PY
lattice        20.0000000000         0.0000000000         0.0000000000
lattice         0.0000000000        20.0000000000         0.0000000000
lattice         0.0000000000         0.0000000000        20.0000000000
atom         8.7475600000        8.7272600000       10.0000000000 H         0.0000000000         0.0000000000       120.7104918121       48.7821135875        0.0000230605
atom         9.9020100000        8.0497400000       10.0000000000 H         0.0000000000         0.0000000000        10.3116690878      133.8014661556        0.0000230605
atom        10.8235000000        8.7959300000       10.0000000000 H         0.0000000000         0.0000000000      -123.1903024892       25.6743735089        0.0000000000
atom         9.7542900000        9.2249100000       10.0000000000 C         0.0000000000         0.0000000000         1.4797090790       63.6099679593        0.0000461211
atom         8.5237900000       11.1328000000       10.0000000000 O         0.0000000000         0.0000000000       327.8962446282      -68.4072082451       -0.0000000000
atom        11.4353000000       11.3881000000       10.0000000000 O         0.0000000000         0.0000000000      -150.8816046405      -53.0528875680        0.0000230605
atom         9.7135600000       10.7312000000       10.0000000000 N         0.0000000000         0.0000000000      -186.3265505379     -150.4082253983       -0.0000922422
energy      -982.0668579426
charge 0
end
begin
comment generated by PY
lattice        20.0000000000         0.0000000000         0.0000000000
lattice         0.0000000000        20.0000000000         0.0000000000
lattice         0.0000000000         0.0000000000        20.0000000000
atom         9.4928700000        8.6452400000        8.9806800000 H         0.0000000000         0.0000000000        31.6149017486       78.6137235316       89.4718057761
atom         9.1403100000        8.7047800000       10.6911000000 H         0.0000000000         0.0000000000        84.5549768565       54.2904977079      -87.6780757830
atom        10.8758000000        8.8373500000       10.0536000000 H         0.0000000000         0.0000000000      -122.2267095865       28.6637497831      -11.6457519944
atom         9.8238300000        9.1137800000        9.9003400000 C         0.0000000000         0.0000000000        32.6800372846       43.2548641550       59.5997706786
atom         8.7486800000       11.3166000000        9.9759800000 O         0.0000000000         0.0000000000       272.4733744151     -161.7569891222       42.5727847663
atom        10.9992000000       11.2997000000       10.0316000000 O         0.0000000000         0.0000000000      -273.1650765472     -172.5686152925       29.6265014663
atom         9.8926900000       10.6737000000       10.0964000000 N         0.0000000000         0.0000000000       -25.9308041711      129.5025692372     -121.9466449099
energy     -1215.5228381390
charge 0
end
begin
comment generated by PY
lattice        20.0000000000         0.0000000000         0.0000000000
lattice         0.0000000000        20.0000000000         0.0000000000
lattice         0.0000000000         0.0000000000        20.0000000000
atom         9.0240500000        8.7475000000       10.5614000000 H         0.0000000000         0.0000000000        90.2660143646       49.2823207472      -76.1342952403
atom        10.7197000000        8.5679100000       10.3972000000 H         0.0000000000         0.0000000000       -84.6592158240       82.4199221300      -52.8526599919
atom         9.7400700000        8.6440200000        8.9445500000 H         0.0000000000         0.0000000000        11.5550332531       67.5597932368      104.4242100163
atom         9.8691900000        9.0903900000        9.9333800000 C         0.0000000000         0.0000000000       -33.2521646858       13.1401571215       33.9780091620
atom         8.7692900000       11.3432000000        9.8535700000 O         0.0000000000         0.0000000000       268.1551407898     -185.3753568570       32.5138656825
atom        10.9874000000       11.2966000000       10.2104000000 O         0.0000000000         0.0000000000      -276.4979073267     -160.4569922042      -54.0668527772
atom         9.8454900000       10.6832000000        9.9909300000 N         0.0000000000         0.0000000000        24.4333763685      133.4305558256       12.1375662093
energy     -1215.5832362194
charge 0
end
begin
comment generated by PY
lattice        20.0000000000         0.0000000000         0.0000000000
lattice         0.0000000000        20.0000000000         0.0000000000
lattice         0.0000000000         0.0000000000        20.0000000000
atom        10.0447000000        8.6359300000       10.9591000000 H         0.0000000000         0.0000000000       -13.8427553389       66.7147515167     -108.5062566670
atom        10.6045000000        8.7376300000        9.2356400000 H         0.0000000000         0.0000000000       -81.5963829202       43.3450819403       84.6277433669
atom         8.8512400000        8.7089400000        9.6521200000 H         0.0000000000         0.0000000000       115.1453514250       55.6629120062       32.6808900798
atom         9.8572500000        9.0760100000        9.9653300000 C         0.0000000000         0.0000000000       -11.8237682789       37.2511209896      -24.7293252790
atom         8.7595400000       11.3541000000        9.7553300000 O         0.0000000000         0.0000000000       279.4636544260     -167.7860012806       35.4799126821
atom        10.9580000000       11.2760000000       10.3337000000 O         0.0000000000         0.0000000000      -265.9466095129     -154.2622643599     -110.1768333073
atom         9.8993700000       10.6979000000        9.9389300000 N         0.0000000000         0.0000000000       -21.3991998001      119.0747761272       90.6235291245
energy     -1206.3617876020
charge 0
end
begin
comment generated by PY
lattice        20.0000000000         0.0000000000         0.0000000000
lattice         0.0000000000        20.0000000000         0.0000000000
lattice         0.0000000000         0.0000000000        20.0000000000
atom        10.8123000000        8.7100500000        9.8244900000 H         0.0000000000         0.0000000000      -113.8646995313       53.7875135197        9.8961443402
atom         9.1137500000        8.6462900000        9.2545800000 H         0.0000000000         0.0000000000        74.7012444459       70.1459542337       68.8457116512
atom         9.4963900000        8.8091600000       10.9452000000 H         0.0000000000         0.0000000000        32.1678584176       54.0566268591     -107.4551272078
atom         9.8014300000        9.1247900000        9.9457600000 C         0.0000000000         0.0000000000        40.9580368991       25.3637351153        6.4864117948
atom         8.8296300000       11.2828000000        9.6629000000 O         0.0000000000         0.0000000000       270.4024701295     -131.2124870233       29.2046678908
atom        10.9270000000       11.2886000000       10.5009000000 O         0.0000000000         0.0000000000      -234.6907904089     -140.7416804905     -169.3948728659
atom         9.9081100000       10.7171000000        9.8576100000 N         0.0000000000         0.0000000000       -69.6742268913       68.5999377859      162.4162413363
energy     -1221.2350687843
charge 0
end
begin
comment generated by PY
lattice        20.0000000000         0.0000000000         0.0000000000
lattice         0.0000000000        20.0000000000         0.0000000000
lattice         0.0000000000         0.0000000000        20.0000000000
atom         9.0208300000        8.7191000000        9.4229900000 H         0.0000000000         0.0000000000        98.1585865380       55.2753107166       56.7365822946
atom         9.6249000000        9.0741400000       11.0106000000 H         0.0000000000         0.0000000000        32.9967770917        3.1451424532     -104.5128242943
atom        10.8268000000        8.6728800000        9.7050800000 H         0.0000000000         0.0000000000      -107.4255109020       56.8780205501       35.7524324102
atom         9.8692700000        9.1249800000        9.9860700000 C         0.0000000000         0.0000000000       -10.4962800761       77.7357810350      -12.5428730289
atom         8.8579800000       11.3569000000        9.4527100000 O         0.0000000000         0.0000000000       274.4055244319     -147.8627609324       86.0026752508
atom        10.7979000000       11.1901000000       10.6674000000 O         0.0000000000         0.0000000000      -200.3354677651     -102.7173846237     -218.2423884313
atom         9.9614600000       10.7234000000        9.8648500000 N         0.0000000000         0.0000000000       -87.3043123789       57.5454908013      156.8053188594
energy     -1218.2159536754
charge 0
end
begin
comment generated by PY
lattice        20.0000000000         0.0000000000         0.0000000000
lattice         0.0000000000        20.0000000000         0.0000000000
lattice         0.0000000000         0.0000000000        20.0000000000
atom         9.9130900000        8.8417500000        8.8422400000 H         0.0000000000         0.0000000000       -14.1855393739       45.9604831429      123.7652054699
atom         8.8009300000        8.6273800000       10.1173000000 H         0.0000000000         0.0000000000       114.1723283901       58.5716628384       -0.0215250746
atom        10.7425000000        8.5962700000       10.3175000000 H         0.0000000000         0.0000000000      -118.0340569009       60.1866221676      -23.1692761938
atom         9.7948200000        9.0671500000        9.9496300000 C         0.0000000000         0.0000000000        29.6236981034       29.2210174459      -70.2508290682
atom         8.9103000000       11.2901000000        9.4724900000 O         0.0000000000         0.0000000000       226.7939826526     -142.5239226571      170.0274306359
atom        10.9142000000       11.3322000000       10.5224000000 O         0.0000000000         0.0000000000      -271.5851084942     -162.8962506486      -94.2412320102
atom         9.8337500000       10.7156000000       10.1007000000 N         0.0000000000         0.0000000000        33.2145036229      111.4802877110     -106.1098737590
energy     -1198.8793960028
charge 0
end
begin
comment generated by PY
lattice        20.0000000000         0.0000000000         0.0000000000
lattice         0.0000000000        20.0000000000         0.0000000000
lattice         0.0000000000         0.0000000000        20.0000000000
atom         9.7044300000        8.7118600000       11.0370000000 H         0.0000000000         0.0000000000        26.1080568259       64.8137944234     -117.4776816002
atom        10.7830000000        8.6699000000        9.5397700000 H         0.0000000000         0.0000000000       -92.9660225970       60.7088594236       56.6803606079
atom         9.0716900000        8.7388500000        9.3766800000 H         0.0000000000         0.0000000000        85.9048461652       47.0632406604       68.9473914166
atom         9.8892700000        9.1010600000        9.9952800000 C         0.0000000000         0.0000000000       -29.6558844834       18.9935263664      -51.5145512779
atom         8.7406700000       11.3667000000        9.8165100000 O         0.0000000000         0.0000000000       286.9170890200     -156.3825903645      -10.9658266187
atom        10.9550000000       11.2095000000       10.3258000000 O         0.0000000000         0.0000000000      -259.5665622122     -102.6932792997     -138.3178995481
atom         9.8926900000       10.7351000000        9.8447800000 N         0.0000000000         0.0000000000       -16.7415927186       67.4970487904      192.6485170203
energy     -1205.4330701359
charge 0
end
begin
comment generated by PY
lattice        20.0000000000         0.0000000000         0.0000000000
lattice         0.0000000000        20.0000000000         0.0000000000
lattice         0.0000000000         0.0000000000        20.0000000000
atom         9.1429300000        8.7446500000        9.1473600000 H         0.0000000000         0.0000000000        72.0667179083       48.5162048670       92.4622544803
atom         9.2954500000        8.8224500000       10.8804000000 H         0.0000000000         0.0000000000        48.9480123106       44.3496806544      -94.9086078677
atom        10.6401000000        8.4092400000        9.9549300000 H         0.0000000000         0.0000000000       -72.5143459527       92.4224480079       -3.5892438463
atom         9.7953300000        9.0703600000        9.9700700000 C         0.0000000000         0.0000000000       -34.1501169411        6.1804284425      -15.6711833493
atom         8.7528000000       11.2658000000       10.0435000000 O         0.0000000000         0.0000000000       292.9426555298     -129.4261336142      -54.4669591890
atom        11.0206000000       11.3459000000       10.0808000000 O         0.0000000000         0.0000000000      -279.7821568302     -161.8449632666      -64.4612584078
atom         9.9187200000       10.7313000000        9.8849200000 N         0.0000000000         0.0000000000       -27.5109660247       99.8027349090      140.6346812403
energy     -1210.6815643400
charge 0
end
begin
comment generated by PY
lattice        20.0000000000         0.0000000000         0.0000000000
lattice         0.0000000000        20.0000000000         0.0000000000
lattice         0.0000000000         0.0000000000        20.0000000000
atom        10.9294000000        8.6879500000       10.1390000000 H         0.0000000000         0.0000000000      -119.4529775914       62.1725019606      -34.0060360540
atom         9.5105300000        8.8256000000        8.9136600000 H         0.0000000000         0.0000000000        42.8073954782       43.3381180049      111.0563163368
atom         9.2541900000        8.7055700000       10.7238000000 H         0.0000000000         0.0000000000        65.7846663033       42.7986291694      -98.7720996667
atom         9.8944500000        9.0944200000        9.9058700000 C         0.0000000000         0.0000000000       -15.8674280608       29.2331526315       77.4236291444
atom         8.7622800000       11.3738000000       10.1705000000 O         0.0000000000         0.0000000000       271.1941591757     -168.4331005493       19.0596245526
atom        10.9702000000       11.2054000000        9.7668500000 O         0.0000000000         0.0000000000      -268.9590583055      -96.7015242212      115.4564671101
atom         9.8364900000       10.7304000000       10.1683000000 N         0.0000000000         0.0000000000        24.4931199400       87.5926230039     -190.2183253021
energy     -1206.6898335981
charge 0
end
begin
comment generated by PY
lattice        20.0000000000         0.0000000000         0.0000000000
lattice         0.0000000000        20.0000000000         0.0000000000
lattice         0.0000000000         0.0000000000        20.0000000000
atom         8.8424300000        8.6257300000        9.5834100000 H         0.0000000000         0.0000000000       104.5440940595       71.2887655524       42.5741684061
atom         9.8032500000        8.7052300000       11.0027000000 H         0.0000000000         0.0000000000         5.6581000473       50.6948548278     -104.6542846642
atom        10.5746000000        8.5148600000        9.4187300000 H         0.0000000000         0.0000000000       -76.5618157786       76.0487381689       63.5048389893
atom         9.8013800000        9.0471600000        9.9855000000 C         0.0000000000         0.0000000000       -11.1075574500       -5.4470272871       -4.0174443445
atom         8.8669100000       11.3026000000       10.4939000000 O         0.0000000000         0.0000000000       257.0566422364     -147.1901508510     -128.7164559768
atom        10.8951000000       11.3447000000        9.5436600000 O         0.0000000000         0.0000000000      -245.7022349932     -173.1755785936      105.6838645580
atom         9.9164200000       10.7198000000        9.9691500000 N         0.0000000000         0.0000000000       -33.8875311819      127.7808981826       25.6259660927
energy     -1213.0656081085
charge 0
end
begin
comment generated by PY
lattice        20.0000000000         0.0000000000         0.0000000000
lattice         0.0000000000        20.0000000000         0.0000000000
lattice         0.0000000000         0.0000000000        20.0000000000
atom        10.7210000000        8.7923600000        9.3354600000 H         0.0000000000         0.0000000000       -96.5143431745       39.3656974180       76.9256700152
atom         8.9756900000        8.6049400000        9.5132200000 H         0.0000000000         0.0000000000        87.6324328800       65.1161570943       49.0654564107
atom         9.9217300000        8.7685800000       10.9942000000 H         0.0000000000         0.0000000000        -4.4195052304       36.4203777510     -113.1163059410
atom         9.8513700000        9.0651700000        9.9572400000 C         0.0000000000         0.0000000000         7.7010259072       45.6015794651       -2.7118463645
atom         8.9553600000       11.3234000000       10.6786000000 O         0.0000000000         0.0000000000       222.4861006651     -146.6415341874     -178.0079879955
atom        10.8343000000       11.2721000000        9.3609100000 O         0.0000000000         0.0000000000      -256.9846014174     -120.4244793491      159.6631330973
atom         9.8135600000       10.7406000000       10.0028000000 N         0.0000000000         0.0000000000        40.0988773095       80.5619787475        8.1821046567
energy     -1216.8497597819
charge 0
end
begin
comment generated by PY
lattice        20.0000000000         0.0000000000         0.0000000000
lattice         0.0000000000        20.0000000000         0.0000000000
lattice         0.0000000000         0.0000000000        20.0000000000
atom         9.2495900000        8.5912600000       10.7980000000 H         0.0000000000         0.0000000000        56.2947922602       80.5475039520      -93.5213790074
atom        10.7645000000        8.5675400000        9.9287100000 H         0.0000000000         0.0000000000      -102.6041566635       75.3670582038        4.6859175976
atom         9.3561800000        8.8362900000        8.9718900000 H         0.0000000000         0.0000000000        44.0708660418       49.1057631164      114.3953436981
atom         9.7921200000        9.1075000000        9.9622000000 C         0.0000000000         0.0000000000        46.9571717411       -8.1336398712       -6.5696396364
atom         9.0727000000       11.2732000000       10.8257000000 O         0.0000000000         0.0000000000       242.1252042719     -130.1933845899     -167.5812332319
atom        10.6104000000       11.3210000000        9.1410200000 O         0.0000000000         0.0000000000      -138.9689649502     -156.1588277333      252.9180654270
atom        10.0039000000       10.7180000000       10.0920000000 N         0.0000000000         0.0000000000      -147.8751896407       89.4652338616     -104.3272948471
energy     -1196.6678508822
charge 0
end
begin
comment generated by PY
lattice        20.0000000000         0.0000000000         0.0000000000
lattice         0.0000000000        20.0000000000         0.0000000000
lattice         0.0000000000         0.0000000000        20.0000000000
atom         9.0084100000        8.7653800000        9.3078500000 H         0.0000000000         0.0000000000        98.4191932569       41.0945941537       65.8386949095
atom         9.6257700000        8.6806000000       10.9457000000 H         0.0000000000         0.0000000000        23.3979126140       57.9054264131     -107.3040776879
atom        10.8323000000        8.7038100000        9.6397500000 H         0.0000000000         0.0000000000      -113.5992828500       53.7954172048       27.1524806831
atom         9.8432400000        9.0780700000        9.9494100000 C         0.0000000000         0.0000000000       -16.8799758334       41.0721657611       14.8501298625
atom         9.2442400000       11.2894000000       10.9718000000 O         0.0000000000         0.0000000000       145.7660507893     -138.7300490568     -258.7976842803
atom        10.5482000000       11.3064000000        9.0866800000 O         0.0000000000         0.0000000000      -189.8786847879     -140.7982405669      227.2974994493
atom         9.8281900000       10.7304000000        9.9841400000 N         0.0000000000         0.0000000000        52.7745768111       85.6607860910       30.9631340031
energy     -1215.7429991258
charge 0
end
begin
comment generated by PY
lattice        20.0000000000         0.0000000000         0.0000000000
lattice         0.0000000000        20.0000000000         0.0000000000
lattice         0.0000000000         0.0000000000        20.0000000000
atom         9.0103500000        8.6022000000       10.4965000000 H         0.0000000000         0.0000000000        89.0700668003       66.0295231317      -54.0379478144
atom        10.8004000000        8.7471600000       10.3544000000 H         0.0000000000         0.0000000000      -107.6821808695       50.2844235214      -33.6910001193
atom         9.8748400000        8.6673300000        8.9659000000 H         0.0000000000         0.0000000000       -10.7034902193       58.2891405044      101.3752656360
atom         9.8337100000        9.0683200000        9.9640600000 C         0.0000000000         0.0000000000        19.6963894585       24.2384765062      -20.9085312529
atom         9.1872700000       11.3043000000       10.9029000000 O         0.0000000000         0.0000000000       142.7029732100     -153.3099720866     -245.9014306836
atom        10.6298000000       11.3179000000        9.1775500000 O         0.0000000000         0.0000000000      -217.0120224047     -156.3652851294      185.2482172632
atom         9.7925400000       10.7182000000        9.9519600000 N         0.0000000000         0.0000000000        83.9285340248      110.8334566128       67.9145500315
energy     -1219.9538498578
charge 0
end
begin
comment generated by PY
lattice        20.0000000000         0.0000000000         0.0000000000
lattice         0.0000000000        20.0000000000         0.0000000000
lattice         0.0000000000         0.0000000000        20.0000000000
atom        10.5153000000        8.7817400000        9.2046700000 H         0.0000000000         0.0000000000       -84.0223583556       38.6771355809       78.5760565205
atom         8.7369600000        8.8993400000        9.6353600000 H         0.0000000000         0.0000000000       124.7844902175       36.2810578628       39.1598762091
atom        10.0486000000        8.4860600000       10.8482000000 H         0.0000000000         0.0000000000       -30.9702976874       84.6757866109      -89.7928633910
atom         9.7961600000        9.0903200000        9.9618200000 C         0.0000000000         0.0000000000        43.3832016349       23.4195525968      -21.5006086769
atom         9.3255000000       11.2430000000       10.9980000000 O         0.0000000000         0.0000000000       198.1873664033     -120.9011808539     -211.8054017508
atom        10.3165000000       11.3482000000        8.9786000000 O         0.0000000000         0.0000000000       -43.1985066982     -158.5464719978      278.8188767781
atom        10.0523000000       10.7240000000       10.0817000000 N         0.0000000000         0.0000000000      -208.1641955145       96.3941202004      -73.4558356889
energy     -1199.5231136593
charge 0
end
begin
comment generated by PY
lattice        20.0000000000         0.0000000000         0.0000000000
lattice         0.0000000000        20.0000000000         0.0000000000
lattice         0.0000000000         0.0000000000        20.0000000000
atom         9.1198300000        8.4423200000       10.3569000000 H         0.0000000000         0.0000000000        73.5310324002       91.4925938494      -31.2421261163
atom        10.8713000000        8.8788600000       10.4130000000 H         0.0000000000         0.0000000000      -119.2932864256       44.9688830475      -50.1837835766
atom         9.8966500000        8.8406900000        8.8547600000 H         0.0000000000         0.0000000000        -0.2347273724       42.4797766313      130.3499105886
atom         9.8683500000        9.1203300000        9.9578900000 C         0.0000000000         0.0000000000        -5.8619512282       10.6235237032      -58.8122716796
atom         9.7698400000       11.2659000000       11.1276000000 O         0.0000000000         0.0000000000       -74.1611770451     -134.0058377993     -270.5699618975
atom        10.1712000000       11.3064000000        8.9521200000 O         0.0000000000         0.0000000000      -163.2919069381     -141.3506743517      224.6963719870
atom         9.6067000000       10.7201000000        9.9718600000 N         0.0000000000         0.0000000000       289.3118635488       85.7911349195       55.7618737550
energy     -1187.8700750007
charge 0
end
begin
comment generated by PY
lattice        20.0000000000         0.0000000000         0.0000000000
lattice         0.0000000000        20.0000000000         0.0000000000
lattice         0.0000000000         0.0000000000        20.0000000000
atom         8.7578800000        9.0065200000       10.0192000000 H         0.0000000000         0.0000000000       111.3694262072       23.2057527422      -14.9529118582
atom        10.1154000000        8.5662800000       10.8716000000 H         0.0000000000         0.0000000000       -19.2622180604       75.0912520957      -98.1770944567
atom        10.2207000000        8.5751800000        9.0677500000 H         0.0000000000         0.0000000000       -43.2187461211       73.9595016644      100.3141094141
atom         9.8198900000        9.0999600000        9.9634900000 C         0.0000000000         0.0000000000        -5.4386076496       21.8634532953       13.6496291743
atom         9.6636500000       11.2290000000       11.1293000000 O         0.0000000000         0.0000000000       121.6632182031     -124.0897911428     -268.7407736957
atom         9.9577700000       11.3625000000        8.8944500000 O         0.0000000000         0.0000000000        51.1565718182     -165.6934466358      275.3018814246
atom        10.0703000000       10.7167000000       10.0071000000 N         0.0000000000         0.0000000000      -216.2699443975       95.6634010416       -7.3953300024
energy     -1203.3760334074
charge 0
end
begin
comment generated by PY
lattice        20.0000000000         0.0000000000         0.0000000000
lattice         0.0000000000        20.0000000000         0.0000000000
lattice         0.0000000000         0.0000000000        20.0000000000
atom        10.8340000000        8.7288700000        9.5975100000 H         0.0000000000         0.0000000000       -90.8988297482       62.7943718621       42.4076413455
atom         9.2478700000        8.6531300000        9.1322000000 H         0.0000000000         0.0000000000        57.1474489664       64.2829645094       85.2189356387
atom         9.5455200000        8.6581200000       10.8873000000 H         0.0000000000         0.0000000000        42.6941745922       53.7131131618     -112.7246691610
atom         9.8724800000        9.0850100000        9.9089200000 C         0.0000000000         0.0000000000       -53.4434782229        4.2533916630       18.6304154805
atom        10.0586000000       11.2933000000       11.1395000000 O         0.0000000000         0.0000000000      -115.9750335444     -144.5878071633     -263.6001501694
atom         9.8281400000       11.3017000000        8.9135700000 O         0.0000000000         0.0000000000       -59.1225595840     -132.6640576472      275.1830625422
atom         9.6838200000       10.7332000000       10.0449000000 N         0.0000000000         0.0000000000       219.5976198803       92.2080336142      -45.1153356764
energy     -1206.0870691838
charge 0
end
begin
comment generated by PY
lattice        20.0000000000         0.0000000000         0.0000000000
lattice         0.0000000000        20.0000000000         0.0000000000
lattice         0.0000000000         0.0000000000        20.0000000000
atom         9.1078300000        8.8505300000       10.7734000000 H         0.0000000000         0.0000000000        70.6853848963       44.9320509084      -91.7021742171
atom        10.7353000000        8.6441700000       10.3558000000 H         0.0000000000         0.0000000000      -100.5623643631       57.3858229997      -49.1715785450
atom         9.4999700000        8.5009000000        9.0377400000 H         0.0000000000         0.0000000000        36.0790398346       87.8544560473       99.0486231033
atom         9.8003100000        9.0824900000        9.9629500000 C         0.0000000000         0.0000000000        42.4831673134       -7.7666753594       35.6748376563
atom        10.1705000000       11.2256000000       11.1054000000 O         0.0000000000         0.0000000000        -6.9862038966     -119.1011563883     -295.5426015949
atom         9.4744800000       11.3700000000        8.9836800000 O         0.0000000000         0.0000000000       162.9634900292     -156.6544153940      220.7635424111
atom        10.0423000000       10.7379000000        9.9180700000 N         0.0000000000         0.0000000000      -204.6624938139       93.3502911863       80.9287511863
energy     -1199.9890285206
charge 0
end
begin
comment generated by PY
lattice        20.0000000000         0.0000000000         0.0000000000
lattice         0.0000000000        20.0000000000         0.0000000000
lattice         0.0000000000         0.0000000000        20.0000000000