begin
comment generated by PY
lattice        40.0000000000         0.0000000000         0.0000000000
lattice         0.0000000000        40.0000000000         0.0000000000
lattice         0.0000000000         0.0000000000        40.0000000000
atom         9.3694400000        7.7892500000       18.1124000000 O         0.0000000000         0.0000000000      -228.0779472022     -214.0220180290       97.8902894759
atom         8.8412100000        5.6843800000       17.7869000000 O         0.0000000000         0.0000000000      -109.7678340105      257.2600596594      170.7947635620
atom         8.5346100000        6.8098500000       18.4035000000 N         0.0000000000         0.0000000000       337.8459812127      -43.2386416304     -268.6851530379
energy      -555.8127176416
charge 0
end
begin
comment generated by PY
lattice        40.0000000000         0.0000000000         0.0000000000
lattice         0.0000000000        40.0000000000         0.0000000000
lattice         0.0000000000         0.0000000000        40.0000000000
atom         9.3596900000        7.7828000000       18.1175000000 O         0.0000000000         0.0000000000      -228.8570514096     -219.1758484687       96.7116017144
atom         8.8354400000        5.6782700000       17.7891000000 O         0.0000000000         0.0000000000      -100.9351315488      258.7676429436      164.6879595745
atom         8.5523500000        6.8242000000       18.3951000000 N         0.0000000000         0.0000000000       329.7918829584      -39.5910944749     -261.3991612889
energy      -567.0112668778
charge 0
end
begin
comment generated by PY
lattice        40.0000000000         0.0000000000         0.0000000000
lattice         0.0000000000        40.0000000000         0.0000000000
lattice         0.0000000000         0.0000000000        40.0000000000
atom         9.3856900000        7.8195100000       18.1106000000 O         0.0000000000         0.0000000000      -216.8615211336     -221.8847133156       86.7607610587
atom         8.8215300000        5.6730900000       17.7978000000 O         0.0000000000         0.0000000000      -102.4430852681      277.5872813848      172.2582500584
atom         8.5385300000        6.7881700000       18.3931000000 N         0.0000000000         0.0000000000       319.3047064017      -55.7030911297     -259.0188341777
energy      -551.5537236102
charge 0
end
begin
comment generated by PY
lattice        40.0000000000         0.0000000000         0.0000000000
lattice         0.0000000000        40.0000000000         0.0000000000
lattice         0.0000000000         0.0000000000        40.0000000000
atom         9.3748900000        7.8097300000       18.1153000000 O         0.0000000000         0.0000000000      -224.4743036492     -237.1706514782       87.2564390026
atom         8.8107200000        5.6559900000       17.8001000000 O         0.0000000000         0.0000000000       -85.3969470788      280.4033139208      160.4059675995
atom         8.5632300000        6.8188800000       18.3851000000 N         0.0000000000         0.0000000000       309.8720507281      -43.2331624426     -247.6624066021
energy      -561.5357094348
charge 0
end
begin
comment generated by PY
lattice        40.0000000000         0.0000000000         0.0000000000
lattice         0.0000000000        40.0000000000         0.0000000000
lattice         0.0000000000         0.0000000000        40.0000000000
atom         9.3602800000        7.7860300000       18.1182000000 O         0.0000000000         0.0000000000      -227.4248564813     -227.2908156667       92.8572511234
atom         8.8204500000        5.6591900000       17.7939000000 O         0.0000000000         0.0000000000       -85.8374745623      265.5441914332      155.6487970253
atom         8.5688000000        6.8423200000       18.3890000000 N         0.0000000000         0.0000000000       313.2619310436      -38.2532757666     -248.5056712093
energy      -569.5278244914
charge 0
end
begin
comment generated by PY
lattice        40.0000000000         0.0000000000         0.0000000000
lattice         0.0000000000        40.0000000000         0.0000000000
lattice         0.0000000000         0.0000000000        40.0000000000
atom         9.3907800000        7.8107500000       18.1037000000 O         0.0000000000         0.0000000000      -212.0152743462     -205.8298244586       88.6361025793
atom         8.8359300000        5.6880000000       17.7921000000 O         0.0000000000         0.0000000000      -113.1154878363      267.1659007201      176.7085856666
atom         8.5162500000        6.7811400000       18.4074000000 N         0.0000000000         0.0000000000       325.1306621826      -61.3361762615     -265.3440882460
energy      -542.3263956705
charge 0
end
begin
comment generated by PY
lattice        40.0000000000         0.0000000000         0.0000000000
lattice         0.0000000000        40.0000000000         0.0000000000
lattice         0.0000000000         0.0000000000        40.0000000000
atom         9.3520800000        7.7578100000       18.1147000000 O         0.0000000000         0.0000000000      -228.9842828845     -198.8135291601      103.8058727155
atom         8.8539100000        5.7010900000       17.7831000000 O         0.0000000000         0.0000000000      -112.4203806161      238.0453303454      166.1642647646
atom         8.5399300000        6.8266800000       18.4053000000 N         0.0000000000         0.0000000000       341.4050635006      -39.2327641853     -269.9695374801
energy      -569.1808923854
charge 0
end
begin
comment generated by PY
lattice        40.0000000000         0.0000000000         0.0000000000
lattice         0.0000000000        40.0000000000         0.0000000000
lattice         0.0000000000         0.0000000000        40.0000000000
atom         9.3634300000        7.7626100000       18.1078000000 O         0.0000000000         0.0000000000      -220.8485599817     -201.5620441614       96.7775315260
atom         8.8630600000        5.7095600000       17.7791000000 O         0.0000000000         0.0000000000      -111.0571901624      239.4282520962      165.6061494875
atom         8.5165000000        6.8115200000       18.4177000000 N         0.0000000000         0.0000000000       331.9055501441      -37.8664079348     -262.3838810136
energy      -554.2206438707
charge 0
end
begin
comment generated by PY
lattice        40.0000000000         0.0000000000         0.0000000000
lattice         0.0000000000        40.0000000000         0.0000000000
lattice         0.0000000000         0.0000000000        40.0000000000
atom         9.3856900000        7.7921500000       18.1012000000 O         0.0000000000         0.0000000000      -210.6113801944     -203.2946016057       88.4457064827
atom         8.8523200000        5.6976500000       17.7831000000 O         0.0000000000         0.0000000000      -110.8068771092      257.3945540702      171.5871633138
atom         8.5033400000        6.7913700000       18.4206000000 N         0.0000000000         0.0000000000       321.4178803641      -54.0996755251     -260.0326697965
energy      -537.5025052314
charge 0
end
begin
comment generated by PY
lattice        40.0000000000         0.0000000000         0.0000000000
lattice         0.0000000000        40.0000000000         0.0000000000
lattice         0.0000000000         0.0000000000        40.0000000000
atom         9.3570500000        7.7594600000       18.1115000000 O         0.0000000000         0.0000000000      -230.3653395865     -202.0284098207      103.7345058530
atom         8.8369900000        5.6864900000       17.7908000000 O         0.0000000000         0.0000000000      -102.9197328275      246.0683033663      161.8072972199
atom         8.5535900000        6.8414800000       18.4001000000 N         0.0000000000         0.0000000000       333.2848493534      -44.0396935457     -265.5417261335
energy      -572.4927152642
charge 0
end
begin
comment generated by PY
lattice        40.0000000000         0.0000000000         0.0000000000
lattice         0.0000000000        40.0000000000         0.0000000000
lattice         0.0000000000         0.0000000000        40.0000000000
atom         9.4117800000        7.8356300000       18.0965000000 O         0.0000000000         0.0000000000      -203.3270220958     -204.5400687025       82.5834648875
atom         8.8155700000        5.6714300000       17.8017000000 O         0.0000000000         0.0000000000      -107.3907983937      283.7006655430      178.0508778154
atom         8.5155200000        6.7716500000       18.4047000000 N         0.0000000000         0.0000000000       310.7169974290      -79.1602968405     -260.6345427028
energy      -532.8624388023
charge 0
end
begin
comment generated by PY
lattice        40.0000000000         0.0000000000         0.0000000000
lattice         0.0000000000        40.0000000000         0.0000000000
lattice         0.0000000000         0.0000000000        40.0000000000
atom         9.3626300000        7.7837100000       18.1156000000 O         0.0000000000         0.0000000000      -225.8664060957     -222.3884420185       93.3802728472
atom         8.8234700000        5.6765500000       17.7975000000 O         0.0000000000         0.0000000000       -93.8388053025      265.2201760519      161.5802435071
atom         8.5626700000        6.8251300000       18.3877000000 N         0.0000000000         0.0000000000       319.7053883376      -42.8322340334     -254.9598932937
energy      -573.2743254810
charge 0
end
begin
comment generated by PY
lattice        40.0000000000         0.0000000000         0.0000000000
lattice         0.0000000000        40.0000000000         0.0000000000
lattice         0.0000000000         0.0000000000        40.0000000000
atom         9.3632500000        7.8067500000       18.1231000000 O         0.0000000000         0.0000000000      -225.9153413575     -238.0159395093       88.0046431779
atom         8.8234100000        5.6545200000       17.7900000000 O         0.0000000000         0.0000000000       -87.9820301226      273.8801862838      160.1160173464
atom         8.5620300000        6.8239800000       18.3877000000 N         0.0000000000         0.0000000000       313.8968714800      -35.8640867745     -248.1205605242
energy      -561.2016522986
charge 0
end
begin
comment generated by PY
lattice        40.0000000000         0.0000000000         0.0000000000
lattice         0.0000000000        40.0000000000         0.0000000000
lattice         0.0000000000         0.0000000000        40.0000000000
atom         9.3883600000        7.8423500000       18.1164000000 O         0.0000000000         0.0000000000      -206.1263149277     -220.8904293558       79.0397221016
atom         8.8253400000        5.6673000000       17.7930000000 O         0.0000000000         0.0000000000      -104.8578634783      284.0341254914      176.2844444570
atom         8.5311300000        6.7686900000       18.3920000000 N         0.0000000000         0.0000000000       310.9841014665      -63.1435961357     -255.3239896191
energy      -542.6468259962
charge 0
end
begin
comment generated by PY
lattice        40.0000000000         0.0000000000         0.0000000000
lattice         0.0000000000        40.0000000000         0.0000000000
lattice         0.0000000000         0.0000000000        40.0000000000
atom         9.3512800000        7.7717400000       18.1200000000 O         0.0000000000         0.0000000000      -227.1284808442     -214.3236172197       97.0851800874
atom         8.8352400000        5.6743000000       17.7879000000 O         0.0000000000         0.0000000000       -95.5293142780      253.8252148019      158.9225993030
atom         8.5621900000        6.8413800000       18.3936000000 N         0.0000000000         0.0000000000       322.6571951222      -39.5017206427     -256.0080793904
energy      -573.3160850214
charge 0
end
begin
comment generated by PY
lattice        40.0000000000         0.0000000000         0.0000000000
lattice         0.0000000000        40.0000000000         0.0000000000
lattice         0.0000000000         0.0000000000        40.0000000000
atom         9.3929200000        7.7960500000       18.0971000000 O         0.0000000000         0.0000000000      -214.4740970619     -201.3470646677       92.0225695502
atom         8.8339500000        5.6960600000       17.7964000000 O         0.0000000000         0.0000000000      -112.3100671081      262.0609365323      174.3576887554
atom         8.5160700000        6.7887300000       18.4102000000 N         0.0000000000         0.0000000000       326.7843641700      -60.7137949252     -266.3808352451
energy      -546.0248213987
charge 0
end
begin
comment generated by PY
lattice        40.0000000000         0.0000000000         0.0000000000
lattice         0.0000000000        40.0000000000         0.0000000000
lattice         0.0000000000         0.0000000000        40.0000000000
atom         9.3722100000        7.7515900000       18.0974000000 O         0.0000000000         0.0000000000      -228.7766343592     -193.5727071785      105.4323763437
atom         8.8397200000        5.7058500000       17.7954000000 O         0.0000000000         0.0000000000      -109.1667256930      240.6383560692      164.6163839406
atom         8.5331500000        6.8283500000       18.4109000000 N         0.0000000000         0.0000000000       337.9435600523      -47.0651258302     -270.0483833449
energy      -564.6558833283
charge 0
end
begin
comment generated by PY
lattice        40.0000000000         0.0000000000         0.0000000000
lattice         0.0000000000        40.0000000000         0.0000000000
lattice         0.0000000000         0.0000000000        40.0000000000
atom         9.3756200000        7.7635800000       18.0989000000 O         0.0000000000         0.0000000000      -227.1995612907     -203.5057359763      100.8800008085
atom         8.8471800000        5.6946600000       17.7859000000 O         0.0000000000         0.0000000000      -104.5484864219      244.2566953055      162.4181379999
atom         8.5207200000        6.8274400000       18.4200000000 N         0.0000000000         0.0000000000       331.7481477126      -40.7515593292     -263.2982388085
energy      -549.8504098192
charge 0
end
begin
comment generated by PY
lattice        40.0000000000         0.0000000000         0.0000000000
lattice         0.0000000000        40.0000000000         0.0000000000
lattice         0.0000000000         0.0000000000        40.0000000000
atom         9.3929000000        7.7942400000       18.0965000000 O         0.0000000000         0.0000000000      -206.1606017039     -198.2162709666       86.8575218827
atom         8.8456500000        5.7025400000       17.7898000000 O         0.0000000000         0.0000000000      -112.0329658598      260.1199847161      173.4756526386
atom         8.5027200000        6.7834000000       18.4184000000 N         0.0000000000         0.0000000000       318.1934675637      -61.9035137495     -260.3334975818
energy      -539.1807533678
charge 0
end
begin
comment generated by PY
lattice        40.0000000000         0.0000000000         0.0000000000
lattice         0.0000000000        40.0000000000         0.0000000000
lattice         0.0000000000         0.0000000000        40.0000000000
atom         9.3441600000        7.7523200000       18.1187000000 O         0.0000000000         0.0000000000      -224.6965331568     -194.8342593940      101.9499896722
atom         8.8440500000        5.6829500000       17.7843000000 O         0.0000000000         0.0000000000      -100.0391429693      239.4155577259      157.3612566182
atom         8.5602600000        6.8536900000       18.3993000000 N         0.0000000000         0.0000000000       324.7359761261      -44.5807983319     -259.3114462905
energy      -576.8552379992
charge 0
end
begin
comment generated by PY
lattice        40.0000000000         0.0000000000         0.0000000000
lattice         0.0000000000        40.0000000000         0.0000000000
lattice         0.0000000000         0.0000000000        40.0000000000
atom         9.3831500000        7.8066400000       18.1081000000 O         0.0000000000         0.0000000000      -219.9549406476     -215.5411989670       91.2556739720
atom         8.8268900000        5.6832500000       17.7973000000 O         0.0000000000         0.0000000000      -107.4874632641      269.3981070085      173.2449897930
atom         8.5353100000        6.7912600000       18.3966000000 N         0.0000000000         0.0000000000       327.4423039117      -53.8568080415     -264.5002868255
energy      -554.6885133672
charge 0
end
begin
comment generated by PY
lattice        40.0000000000         0.0000000000         0.0000000000
lattice         0.0000000000        40.0000000000         0.0000000000
lattice         0.0000000000         0.0000000000        40.0000000000
atom         9.3864400000        7.8189800000       18.1098000000 O         0.0000000000         0.0000000000      -223.4254259084     -228.3311245562       89.4947875982
atom         8.8174700000        5.6579400000       17.7957000000 O         0.0000000000         0.0000000000       -96.1361980254      279.2003823548      168.0524407182
atom         8.5423100000        6.8060800000       18.3964000000 N         0.0000000000         0.0000000000       319.5618239338      -50.8697577985     -257.5475283164
energy      -546.6578341431
charge 0
end
begin
comment generated by PY
lattice        40.0000000000         0.0000000000         0.0000000000
lattice         0.0000000000        40.0000000000         0.0000000000
lattice         0.0000000000         0.0000000000        40.0000000000
atom         9.3628300000        7.7809900000       18.1145000000 O         0.0000000000         0.0000000000      -225.7223858727     -223.3294413926       92.9489407411
atom         8.8161800000        5.6679900000       17.8001000000 O         0.0000000000         0.0000000000       -86.6989610385      266.7854965425      156.7162144710
atom         8.5707700000        6.8380200000       18.3860000000 N         0.0000000000         0.0000000000       312.4213238506      -43.4551451498     -249.6656552121
energy      -574.9612681940
charge 0
end
begin
comment generated by PY
lattice        40.0000000000         0.0000000000         0.0000000000
lattice         0.0000000000        40.0000000000         0.0000000000
lattice         0.0000000000         0.0000000000        40.0000000000
atom         9.3905600000        7.8163700000       18.1058000000 O         0.0000000000         0.0000000000      -219.7275774525     -216.7328090272       90.7191387199
atom         8.8252100000        5.6709000000       17.7943000000 O         0.0000000000         0.0000000000      -105.9737265827      274.1324689976      173.7397553427
atom         8.5287500000        6.7942600000       18.4026000000 N         0.0000000000         0.0000000000       325.7009270958      -57.3995599704     -264.4589940625
energy      -543.1052968843
charge 0
end
begin
comment generated by PY
lattice        40.0000000000         0.0000000000         0.0000000000
lattice         0.0000000000        40.0000000000         0.0000000000
lattice         0.0000000000         0.0000000000        40.0000000000
atom         9.3741100000        7.7875300000       18.1083000000 O         0.0000000000         0.0000000000      -227.9897914651     -212.5176539407       98.3509585359
atom         8.8342300000        5.6860000000       17.7927000000 O         0.0000000000         0.0000000000      -108.5144464513      259.2053461591      170.5392022289
atom         8.5372500000        6.8099600000       18.4016000000 N         0.0000000000         0.0000000000       336.5048148558      -46.6870922183     -268.8901607648
energy      -558.3101117132
charge 0
end
begin
comment generated by PY
lattice        40.0000000000         0.0000000000         0.0000000000
lattice         0.0000000000        40.0000000000         0.0000000000
lattice         0.0000000000         0.0000000000        40.0000000000
atom         9.3575400000        7.7576300000       18.1105000000 O         0.0000000000         0.0000000000      -231.4838244494     -199.8075451589      105.3370320649
atom         8.8434200000        5.6912300000       17.7876000000 O         0.0000000000         0.0000000000      -106.8889750628      241.7611923107      163.2951830728
atom         8.5456700000        6.8381700000       18.4049000000 N         0.0000000000         0.0000000000       338.3727995121      -41.9540902124     -268.6320920772
energy      -568.7089145858
charge 0
end
begin
comment generated by PY
lattice        40.0000000000         0.0000000000         0.0000000000
lattice         0.0000000000        40.0000000000         0.0000000000
lattice         0.0000000000         0.0000000000        40.0000000000
atom         9.4051800000        7.7913000000       18.0862000000 O         0.0000000000         0.0000000000      -195.5968550578     -191.9324490871       81.0989709244
atom         8.8455900000        5.7094700000       17.7922000000 O         0.0000000000         0.0000000000      -108.5561520296      263.4781480479      172.0075303522
atom         8.4887600000        6.7788400000       18.4273000000 N         0.0000000000         0.0000000000       304.1533301479      -71.5449220213     -253.1070012766
energy      -532.1927707335
charge 0
end
begin
comment generated by PY
lattice        40.0000000000         0.0000000000         0.0000000000
lattice         0.0000000000        40.0000000000         0.0000000000
lattice         0.0000000000         0.0000000000        40.0000000000
atom         9.3724400000        7.7578100000       18.0994000000 O         0.0000000000         0.0000000000      -230.4118863873     -199.3985207874      104.6770313446
atom         8.8412200000        5.6962300000       17.7910000000 O         0.0000000000         0.0000000000      -106.3486731671      242.8829861769      163.2814080910
atom         8.5311700000        6.8322300000       18.4138000000 N         0.0000000000         0.0000000000       336.7611595544      -43.4842653896     -267.9589394356
energy      -558.7333537939
charge 0
end
begin
comment generated by PY
lattice        40.0000000000         0.0000000000         0.0000000000
lattice         0.0000000000        40.0000000000         0.0000000000
lattice         0.0000000000         0.0000000000        40.0000000000
atom         9.3708100000        7.7637000000       18.1026000000 O         0.0000000000         0.0000000000      -232.6424970377     -202.2479890257      105.3638144337
atom         8.8329800000        5.6910300000       17.7954000000 O         0.0000000000         0.0000000000      -106.6107587440      248.7236743994      165.4781754092
atom         8.5424500000        6.8314500000       18.4050000000 N         0.0000000000         0.0000000000       339.2531557817      -46.4758853737     -270.8412898430
energy      -565.1018083561
charge 0
end
begin
comment generated by PY
lattice        40.0000000000         0.0000000000         0.0000000000
lattice         0.0000000000        40.0000000000         0.0000000000
lattice         0.0000000000         0.0000000000        40.0000000000
atom         9.3949900000        7.8037000000       18.0982000000 O         0.0000000000         0.0000000000      -220.3290859181     -208.7626827281       93.8660127919
atom         8.8262500000        5.6800700000       17.7967000000 O         0.0000000000         0.0000000000      -108.0636182992      268.3383919737      173.2994090081
atom         8.5225100000        6.7982600000       18.4086000000 N         0.0000000000         0.0000000000       328.3927272778      -59.5757861850     -267.1660987395
energy      -542.8876882324
charge 0
end
begin
comment generated by PY
lattice        40.0000000000         0.0000000000         0.0000000000
lattice         0.0000000000        40.0000000000         0.0000000000
lattice         0.0000000000         0.0000000000        40.0000000000
atom         9.3723900000        7.7906300000       18.1107000000 O         0.0000000000         0.0000000000      -228.2213671983     -221.9893497414       95.2468807403
atom         8.8228700000        5.6744900000       17.7973000000 O         0.0000000000         0.0000000000       -97.6057037646      266.8989042928      164.9509256510
atom         8.5522000000        6.8195700000       18.3936000000 N         0.0000000000         0.0000000000       325.8267709628      -44.9090545514     -260.1978063912
energy      -563.8721202128
charge 0
end
begin
comment generated by PY
lattice        40.0000000000         0.0000000000         0.0000000000
lattice         0.0000000000        40.0000000000         0.0000000000
lattice         0.0000000000         0.0000000000        40.0000000000
atom         9.3591200000        7.7861400000       18.1191000000 O         0.0000000000         0.0000000000      -224.2634525697     -227.8418841608       90.2925330923
atom         8.8182000000        5.6645700000       17.7974000000 O         0.0000000000         0.0000000000       -85.2401962994      268.6708020327      156.2783435164
atom         8.5727000000        6.8360500000       18.3839000000 N         0.0000000000         0.0000000000       309.5036488691      -40.8295378719     -246.5705766087
energy      -574.7481439050
charge 0
end
begin
comment generated by PY
lattice        40.0000000000         0.0000000000         0.0000000000
lattice         0.0000000000        40.0000000000         0.0000000000
lattice         0.0000000000         0.0000000000        40.0000000000
atom         9.3988200000        7.8407700000       18.1080000000 O         0.0000000000         0.0000000000      -207.6577019338     -217.0372151934       81.5396739252
atom         8.8181400000        5.6638100000       17.7972000000 O         0.0000000000         0.0000000000      -103.8727385874      285.8135281148      176.1465311776
atom         8.5274000000        6.7744700000       18.3968000000 N         0.0000000000         0.0000000000       311.5306174606      -68.7759129215     -257.6865051028
energy      -537.8606394689
charge 0
end
begin
comment generated by PY
lattice        40.0000000000         0.0000000000         0.0000000000
lattice         0.0000000000        40.0000000000         0.0000000000
lattice         0.0000000000         0.0000000000        40.0000000000
atom         9.3630300000        7.7773500000       18.1131000000 O         0.0000000000         0.0000000000      -229.1234950291     -216.8324004598       97.7212500793
atom         8.8276000000        5.6773900000       17.7947000000 O         0.0000000000         0.0000000000       -97.1825322295      259.5024413105      162.1075154479
atom         8.5574800000        6.8314300000       18.3937000000 N         0.0000000000         0.0000000000       326.3054503192      -42.6707839113     -259.8289655272
energy      -570.2226403146
charge 0
end
begin
comment generated by PY
lattice        40.0000000000         0.0000000000         0.0000000000
lattice         0.0000000000        40.0000000000         0.0000000000
lattice         0.0000000000         0.0000000000        40.0000000000
atom         9.3803100000        7.7895600000       18.1043000000 O         0.0000000000         0.0000000000      -225.3087773098     -209.5525254359       97.3630973766
atom         8.8394700000        5.6855400000       17.7886000000 O         0.0000000000         0.0000000000      -109.4800642050      257.7123545239      170.7474523069
atom         8.5241700000        6.8081700000       18.4108000000 N         0.0000000000         0.0000000000       334.7888415148      -48.1600290879     -268.1100496835
energy      -547.6741727626
charge 0
end
begin
comment generated by PY
lattice        40.0000000000         0.0000000000         0.0000000000
lattice         0.0000000000        40.0000000000         0.0000000000
lattice         0.0000000000         0.0000000000        40.0000000000
atom         9.3784500000        7.7752200000       18.1008000000 O         0.0000000000         0.0000000000      -222.0212748014     -201.8159879142       97.5447690666
atom         8.8451500000        5.7015100000       17.7898000000 O         0.0000000000         0.0000000000      -111.4764804772      250.1729445866      169.6450920335
atom         8.5198100000        6.8063000000       18.4134000000 N         0.0000000000         0.0000000000       333.4976552786      -48.3573566724     -267.1894380395
energy      -552.1006353934
charge 0
end
begin
comment generated by PY
lattice        40.0000000000         0.0000000000         0.0000000000
lattice         0.0000000000        40.0000000000         0.0000000000
lattice         0.0000000000         0.0000000000        40.0000000000
atom         9.3580500000        7.7481000000       18.1068000000 O         0.0000000000         0.0000000000      -229.6619327865     -193.5718621564      106.1149465279
atom         8.8483900000        5.6996400000       17.7867000000 O         0.0000000000         0.0000000000      -107.7973000146      235.1030745026      161.6911926481
atom         8.5394200000        6.8394400000       18.4100000000 N         0.0000000000         0.0000000000       337.4596328011      -41.5317223462     -267.8069391760
energy      -567.6699414158
charge 0
end
begin
comment generated by PY
lattice        40.0000000000         0.0000000000         0.0000000000
lattice         0.0000000000        40.0000000000         0.0000000000
lattice         0.0000000000         0.0000000000        40.0000000000
atom         9.4035200000        7.7956200000       18.0890000000 O         0.0000000000         0.0000000000      -198.8731483685     -194.0882591352       82.8017922948