begin
comment generated by PY
lattice        40.0000000000         0.0000000000         0.0000000000
lattice         0.0000000000        40.0000000000         0.0000000000
lattice         0.0000000000         0.0000000000        40.0000000000
atom        20.0000000000       20.0000000000       20.6323000000 O         0.0000000000         0.0000000000         0.0002075449        0.0000461211     -247.4075473045
atom        20.0000000000       20.0000000000       19.3677000000 O         0.0000000000         0.0000000000        -0.0002075449       -0.0000461211      247.4075473045
energy      -277.9898040071
charge 0
end
begin
comment generated by PY
lattice        40.0000000000         0.0000000000         0.0000000000
lattice         0.0000000000        40.0000000000         0.0000000000
lattice         0.0000000000         0.0000000000        40.0000000000
atom        20.0000000000       20.0000000000       20.6555000000 O         0.0000000000         0.0000000000        -0.0000461211        0.0000000000     -275.0471948405
atom        20.0000000000       20.0000000000       19.3445000000 O         0.0000000000         0.0000000000         0.0000461211       -0.0000000000      275.0471948405
energy      -265.8081755952
charge 0
end
begin
comment generated by PY
lattice        40.0000000000         0.0000000000         0.0000000000
lattice         0.0000000000        40.0000000000         0.0000000000
lattice         0.0000000000         0.0000000000        40.0000000000
atom        20.0000000000       20.0000000000       20.6027000000 O         0.0000000000         0.0000000000         0.0001153027        0.0003689688     -184.8833538827
atom        20.0000000000       20.0000000000       19.3973000000 O         0.0000000000         0.0000000000        -0.0001153027       -0.0003689688      184.8833538827
energy      -290.9664510274
charge 0
end
begin
comment generated by PY
lattice        40.0000000000         0.0000000000         0.0000000000
lattice         0.0000000000        40.0000000000         0.0000000000
lattice         0.0000000000         0.0000000000        40.0000000000
atom        20.0000000000       20.0000000000       20.6422000000 O         0.0000000000         0.0000000000         0.0001383633        0.0000230605     -261.0689633035
atom        20.0000000000       20.0000000000       19.3578000000 O         0.0000000000         0.0000000000        -0.0001383633       -0.0000230605      261.0689633035
energy      -272.9507031220
charge 0
end
begin
comment generated by PY
lattice        40.0000000000         0.0000000000         0.0000000000
lattice         0.0000000000        40.0000000000         0.0000000000
lattice         0.0000000000         0.0000000000        40.0000000000
atom        20.0000000000       20.0000000000       20.6422000000 O         0.0000000000         0.0000000000         0.0001383633        0.0000230605     -261.0689633035
atom        20.0000000000       20.0000000000       19.3578000000 O         0.0000000000         0.0000000000        -0.0001383633       -0.0000230605      261.0689633035
energy      -272.9507031220
charge 0
end
begin
comment generated by PY
lattice        40.0000000000         0.0000000000         0.0000000000
lattice         0.0000000000        40.0000000000         0.0000000000
lattice         0.0000000000         0.0000000000        40.0000000000
atom        20.0000000000       20.0000000000       20.6176000000 O         0.0000000000         0.0000000000         0.0003228477        0.0000922422     -220.9328684088
atom        20.0000000000       20.0000000000       19.3824000000 O         0.0000000000         0.0000000000        -0.0003228477       -0.0000922422      220.9328684088
energy      -284.8943746782
charge 0
end
begin
comment generated by PY
lattice        40.0000000000         0.0000000000         0.0000000000
lattice         0.0000000000        40.0000000000         0.0000000000
lattice         0.0000000000         0.0000000000        40.0000000000
atom        20.0000000000       20.0000000000       20.6486000000 O         0.0000000000         0.0000000000         0.0014758751       -0.0001153027     -268.4011198059
atom        20.0000000000       20.0000000000       19.3514000000 O         0.0000000000         0.0000000000        -0.0014758751        0.0001153027      268.4011198059
energy      -269.5548656299
charge 0
end
begin
comment generated by PY
lattice        40.0000000000         0.0000000000         0.0000000000
lattice         0.0000000000        40.0000000000         0.0000000000
lattice         0.0000000000         0.0000000000        40.0000000000
atom        20.0000000000       20.0000000000       20.6261000000 O         0.0000000000         0.0000000000         0.0001844844        0.0000691816     -237.2211403098
atom        20.0000000000       20.0000000000       19.3739000000 O         0.0000000000         0.0000000000        -0.0001844844       -0.0000691816      237.2211403098
energy      -280.9959366260
charge 0
end
begin
comment generated by PY
lattice        40.0000000000         0.0000000000         0.0000000000
lattice         0.0000000000        40.0000000000         0.0000000000
lattice         0.0000000000         0.0000000000        40.0000000000
atom        20.0000000000       20.0000000000       20.6210000000 O         0.0000000000         0.0000000000         0.0003920293        0.0000691816     -227.7808082359
atom        20.0000000000       20.0000000000       19.3790000000 O         0.0000000000         0.0000000000        -0.0003920293       -0.0000691816      227.7808082359
energy      -283.3684608428
charge 0
end
begin
comment generated by PY
lattice        40.0000000000         0.0000000000         0.0000000000
lattice         0.0000000000        40.0000000000         0.0000000000
lattice         0.0000000000         0.0000000000        40.0000000000
atom        20.0000000000       20.0000000000       20.6672000000 O         0.0000000000         0.0000000000         0.0000691816       -0.0000691816     -283.8354342968
atom        20.0000000000       20.0000000000       19.3328000000 O         0.0000000000         0.0000000000        -0.0000691816        0.0000691816      283.8354342968
energy      -259.2657803555
charge 0
end
begin
comment generated by PY
lattice        40.0000000000         0.0000000000         0.0000000000
lattice         0.0000000000        40.0000000000         0.0000000000
lattice         0.0000000000         0.0000000000        40.0000000000
atom        20.0000000000       20.0000000000       20.6038000000 O         0.0000000000         0.0000000000         0.0005303926        0.0012913907     -187.9376056376
atom        20.0000000000       20.0000000000       19.3962000000 O         0.0000000000         0.0000000000        -0.0005303926       -0.0012913907      187.9376056376
energy      -290.5462497834
charge 0
end
begin
comment generated by PY
lattice        40.0000000000         0.0000000000         0.0000000000
lattice         0.0000000000        40.0000000000         0.0000000000
lattice         0.0000000000         0.0000000000        40.0000000000
atom        20.0000000000       20.0000000000       20.6281000000 O         0.0000000000         0.0000000000         0.0004612110        0.0000691816     -240.6634982232
atom        20.0000000000       20.0000000000       19.3719000000 O         0.0000000000         0.0000000000        -0.0004612110       -0.0000691816      240.6634982232
energy      -280.0402458680
charge 0
end
begin
comment generated by PY
lattice        40.0000000000         0.0000000000         0.0000000000
lattice         0.0000000000        40.0000000000         0.0000000000
lattice         0.0000000000         0.0000000000        40.0000000000
atom        20.0000000000       20.0000000000       20.6422000000 O         0.0000000000         0.0000000000         0.0001383633        0.0000230605     -261.0689633035
atom        20.0000000000       20.0000000000       19.3578000000 O         0.0000000000         0.0000000000        -0.0001383633       -0.0000230605      261.0689633035
energy      -272.9507031220
charge 0
end
begin
comment generated by PY
lattice        40.0000000000         0.0000000000         0.0000000000
lattice         0.0000000000        40.0000000000         0.0000000000
lattice         0.0000000000         0.0000000000        40.0000000000
atom        20.0000000000       20.0000000000       20.6135000000 O         0.0000000000         0.0000000000         0.0002306055        0.0000691816     -212.0152395773
atom        20.0000000000       20.0000000000       19.3865000000 O         0.0000000000         0.0000000000        -0.0002306055       -0.0000691816      212.0152395773
energy      -286.6698975368
charge 0
end
begin
comment generated by PY
lattice        40.0000000000         0.0000000000         0.0000000000
lattice         0.0000000000        40.0000000000         0.0000000000
lattice         0.0000000000         0.0000000000        40.0000000000
atom        20.0000000000       20.0000000000       20.6389000000 O         0.0000000000         0.0000000000         0.0002306055        0.0000461211     -256.8428595905
atom        20.0000000000       20.0000000000       19.3611000000 O         0.0000000000         0.0000000000        -0.0002306055       -0.0000461211      256.8428595905
energy      -274.6601003167
charge 0
end
begin
comment generated by PY
lattice        40.0000000000         0.0000000000         0.0000000000
lattice         0.0000000000        40.0000000000         0.0000000000
lattice         0.0000000000         0.0000000000        40.0000000000
atom        20.0000000000       20.0000000000       20.6343000000 O         0.0000000000         0.0000000000         0.0002997871        0.0000691816     -250.4123908061
atom        20.0000000000       20.0000000000       19.3657000000 O         0.0000000000         0.0000000000        -0.0002997871       -0.0000691816      250.4123908061
energy      -276.9941172153
charge 0
end
begin
comment generated by PY
lattice        40.0000000000         0.0000000000         0.0000000000
lattice         0.0000000000        40.0000000000         0.0000000000
lattice         0.0000000000         0.0000000000        40.0000000000
atom        20.0000000000       20.0000000000       20.6237000000 O         0.0000000000         0.0000000000         0.0002306055        0.0000922422     -232.8974721260
atom        20.0000000000       20.0000000000       19.3763000000 O         0.0000000000         0.0000000000        -0.0002306055       -0.0000922422      232.8974721260
energy      -282.1243689125
charge 0
end
begin
comment generated by PY
lattice        40.0000000000         0.0000000000         0.0000000000
lattice         0.0000000000        40.0000000000         0.0000000000
lattice         0.0000000000         0.0000000000        40.0000000000
atom        20.0000000000       20.0000000000       20.6505000000 O         0.0000000000         0.0000000000         0.0001153027        0.0000000000     -270.3161876874
atom        20.0000000000       20.0000000000       19.3495000000 O         0.0000000000         0.0000000000        -0.0001153027       -0.0000000000      270.3161876874
energy      -268.5374952280
charge 0
end
begin
comment generated by PY
lattice        40.0000000000         0.0000000000         0.0000000000
lattice         0.0000000000        40.0000000000         0.0000000000
lattice         0.0000000000         0.0000000000        40.0000000000
atom        20.0000000000       20.0000000000       20.6120000000 O         0.0000000000         0.0000000000         0.0004612110        0.0011299669     -208.5706694935
atom        20.0000000000       20.0000000000       19.3880000000 O         0.0000000000         0.0000000000        -0.0004612110       -0.0011299669      208.5706694935
energy      -287.2930110197
charge 0
end
begin
comment generated by PY
lattice        40.0000000000         0.0000000000         0.0000000000
lattice         0.0000000000        40.0000000000         0.0000000000
lattice         0.0000000000         0.0000000000        40.0000000000
atom        20.0000000000       20.0000000000       20.6151000000 O         0.0000000000         0.0000000000         0.0002306055        0.0000691816     -215.5823564847
atom        20.0000000000       20.0000000000       19.3849000000 O         0.0000000000         0.0000000000        -0.0002306055       -0.0000691816      215.5823564847
energy      -285.9857516837
charge 0
end
begin
comment generated by PY
lattice        40.0000000000         0.0000000000         0.0000000000
lattice         0.0000000000        40.0000000000         0.0000000000
lattice         0.0000000000         0.0000000000        40.0000000000
atom        20.0000000000       20.0000000000       20.6579000000 O         0.0000000000         0.0000000000         0.0005534532       -0.0000461211     -277.1155459354
atom        20.0000000000       20.0000000000       19.3421000000 O         0.0000000000         0.0000000000        -0.0005534532        0.0000461211      277.1155459354
energy      -264.4807073242
charge 0
end
begin
comment generated by PY
lattice        40.0000000000         0.0000000000         0.0000000000
lattice         0.0000000000        40.0000000000         0.0000000000
lattice         0.0000000000         0.0000000000        40.0000000000
atom        20.0000000000       20.0000000000       20.6158000000 O         0.0000000000         0.0000000000         0.0002075449        0.0000230605     -217.1077020836
atom        20.0000000000       20.0000000000       19.3842000000 O         0.0000000000         0.0000000000        -0.0002075449       -0.0000230605      217.1077020836
energy      -285.6828746443
charge 0
end
begin
comment generated by PY
lattice        40.0000000000         0.0000000000         0.0000000000
lattice         0.0000000000        40.0000000000         0.0000000000
lattice         0.0000000000         0.0000000000        40.0000000000
atom        20.0000000000       20.0000000000       20.6119000000 O         0.0000000000         0.0000000000         0.0004612110        0.0011299669     -208.3364448119
atom        20.0000000000       20.0000000000       19.3881000000 O         0.0000000000         0.0000000000        -0.0004612110       -0.0011299669      208.3364448119
energy      -287.3348966064
charge 0
end
begin
comment generated by PY
lattice        40.0000000000         0.0000000000         0.0000000000
lattice         0.0000000000        40.0000000000         0.0000000000
lattice         0.0000000000         0.0000000000        40.0000000000
atom        20.0000000000       20.0000000000       20.6578000000 O         0.0000000000         0.0000000000         0.0000461211        0.0000230605     -276.9865357720
atom        20.0000000000       20.0000000000       19.3422000000 O         0.0000000000         0.0000000000        -0.0000461211       -0.0000230605      276.9865357720
energy      -264.5405687839
charge 0
end
begin
comment generated by PY
lattice        40.0000000000         0.0000000000         0.0000000000
lattice         0.0000000000        40.0000000000         0.0000000000
lattice         0.0000000000         0.0000000000        40.0000000000
atom        20.0000000000       20.0000000000       20.6187000000 O         0.0000000000         0.0000000000         0.0002767266        0.0000230605     -223.2109912882
atom        20.0000000000       20.0000000000       19.3813000000 O         0.0000000000         0.0000000000        -0.0002767266       -0.0000230605      223.2109912882
energy      -284.4058258766
charge 0
end
begin
comment generated by PY
lattice        40.0000000000         0.0000000000         0.0000000000
lattice         0.0000000000        40.0000000000         0.0000000000
lattice         0.0000000000         0.0000000000        40.0000000000
atom        20.0000000000       20.0000000000       20.6346000000 O         0.0000000000         0.0000000000         0.0002997871        0.0000691816     -250.8517557305
atom        20.0000000000       20.0000000000       19.3654000000 O         0.0000000000         0.0000000000        -0.0002997871       -0.0000691816      250.8517557305
energy      -276.8437359435
charge 0
end
begin
comment generated by PY
lattice        40.0000000000         0.0000000000         0.0000000000
lattice         0.0000000000        40.0000000000         0.0000000000
lattice         0.0000000000         0.0000000000        40.0000000000
atom        20.0000000000       20.0000000000       20.6413000000 O         0.0000000000         0.0000000000         0.0001383633        0.0000230605     -259.9527988682
atom        20.0000000000       20.0000000000       19.3587000000 O         0.0000000000         0.0000000000        -0.0001383633       -0.0000230605      259.9527988682
energy      -273.4196505406
charge 0
end
begin
comment generated by PY
lattice        40.0000000000         0.0000000000         0.0000000000
lattice         0.0000000000        40.0000000000         0.0000000000
lattice         0.0000000000         0.0000000000        40.0000000000
atom        20.0000000000       20.0000000000       20.6166000000 O         0.0000000000         0.0000000000         0.0002536660        0.0001153027     -218.8276586001
atom        20.0000000000       20.0000000000       19.3834000000 O         0.0000000000         0.0000000000        -0.0002536660       -0.0001153027      218.8276586001
energy      -285.3339965568
charge 0
end
begin
comment generated by PY
lattice        40.0000000000         0.0000000000         0.0000000000
lattice         0.0000000000        40.0000000000         0.0000000000
lattice         0.0000000000         0.0000000000        40.0000000000
atom        20.0000000000       20.0000000000       20.6614000000 O         0.0000000000         0.0000000000         0.0000230605       -0.0000461211     -279.8406526554
atom        20.0000000000       20.0000000000       19.3386000000 O         0.0000000000         0.0000000000        -0.0000230605        0.0000461211      279.8406526554
energy      -262.5358003709
charge 0
end
begin
comment generated by PY
lattice        40.0000000000         0.0000000000         0.0000000000
lattice         0.0000000000        40.0000000000         0.0000000000
lattice         0.0000000000         0.0000000000        40.0000000000
atom        20.0000000000       20.0000000000       20.6387000000 O         0.0000000000         0.0000000000         0.0002306055        0.0000461211     -256.5754685220
atom        20.0000000000       20.0000000000       19.3613000000 O         0.0000000000         0.0000000000        -0.0002306055       -0.0000461211      256.5754685220
energy      -274.7627948527
charge 0
end
begin
comment generated by PY
lattice        40.0000000000         0.0000000000         0.0000000000
lattice         0.0000000000        40.0000000000         0.0000000000
lattice         0.0000000000         0.0000000000        40.0000000000
atom        20.0000000000       20.0000000000       20.5833000000 O         0.0000000000         0.0000000000         0.0000922422        0.0002306055     -120.3438968836
atom        20.0000000000       20.0000000000       19.4167000000 O         0.0000000000         0.0000000000        -0.0000922422       -0.0002306055      120.3438968836
energy      -296.9599401040
charge 0
end
begin
comment generated by PY
lattice        40.0000000000         0.0000000000         0.0000000000
lattice         0.0000000000        40.0000000000         0.0000000000
lattice         0.0000000000         0.0000000000        40.0000000000
atom        20.0000000000       20.0000000000       20.6446000000 O         0.0000000000         0.0000000000         0.0001383633        0.0000230605     -263.9289497757
atom        20.0000000000       20.0000000000       19.3554000000 O         0.0000000000         0.0000000000        -0.0001383633       -0.0000230605      263.9289497757
energy      -271.6905897191
charge 0
end
begin
comment generated by PY
lattice        40.0000000000         0.0000000000         0.0000000000
lattice         0.0000000000        40.0000000000         0.0000000000
lattice         0.0000000000         0.0000000000        40.0000000000
atom        20.0000000000       20.0000000000       20.6419000000 O         0.0000000000         0.0000000000         0.0001383633        0.0000230605     -260.6995702308
atom        20.0000000000       20.0000000000       19.3581000000 O         0.0000000000         0.0000000000        -0.0001383633       -0.0000230605      260.6995702308
energy      -273.1072415856
charge 0
end
begin
comment generated by PY
lattice        40.0000000000         0.0000000000         0.0000000000
lattice         0.0000000000        40.0000000000         0.0000000000
lattice         0.0000000000         0.0000000000        40.0000000000
atom        20.0000000000       20.0000000000       20.6012000000 O         0.0000000000         0.0000000000         0.0000922422        0.0003228477     -180.6580197534
atom        20.0000000000       20.0000000000       19.3988000000 O         0.0000000000         0.0000000000        -0.0000922422       -0.0003228477      180.6580197534
energy      -291.5147580082
charge 0
end
begin
comment generated by PY
lattice        40.0000000000         0.0000000000         0.0000000000
lattice         0.0000000000        40.0000000000         0.0000000000
lattice         0.0000000000         0.0000000000        40.0000000000
atom        20.0000000000       20.0000000000       20.6519000000 O         0.0000000000         0.0000000000         0.0000461211       -0.0000000000     -271.7296983626
atom        20.0000000000       20.0000000000       19.3481000000 O         0.0000000000         0.0000000000        -0.0000461211        0.0000000000      271.7296983626
energy      -267.7766229439
charge 0
end
begin
comment generated by PY
lattice        40.0000000000         0.0000000000         0.0000000000
lattice         0.0000000000        40.0000000000         0.0000000000
lattice         0.0000000000         0.0000000000        40.0000000000
atom        20.0000000000       20.0000000000       20.6286000000 O         0.0000000000         0.0000000000         0.0002767266        0.0000691816     -241.4961876317
atom        20.0000000000       20.0000000000       19.3714000000 O         0.0000000000         0.0000000000        -0.0002767266       -0.0000691816      241.4961876317
energy      -279.7991515431
charge 0
end
begin
comment generated by PY
lattice        40.0000000000         0.0000000000         0.0000000000
lattice         0.0000000000        40.0000000000         0.0000000000
lattice         0.0000000000         0.0000000000        40.0000000000
atom        20.0000000000       20.0000000000       20.6184000000 O         0.0000000000         0.0000000000         0.0002997871        0.0000461211     -222.5920583712
atom        20.0000000000       20.0000000000       19.3816000000 O         0.0000000000         0.0000000000        -0.0002997871       -0.0000461211      222.5920583712
energy      -284.5395642259
charge 0
end
begin
comment generated by PY
lattice        40.0000000000         0.0000000000         0.0000000000
lattice         0.0000000000        40.0000000000         0.0000000000
lattice         0.0000000000         0.0000000000        40.0000000000
atom        20.0000000000       20.0000000000       20.6652000000 O         0.0000000000         0.0000000000        -0.0001844844        0.0000230605     -282.5404093223
atom        20.0000000000       20.0000000000       19.3348000000 O         0.0000000000         0.0000000000         0.0001844844       -0.0000230605      282.5404093223
energy      -260.3986212828
charge 0
end
begin
comment generated by PY
lattice        40.0000000000         0.0000000000         0.0000000000
lattice         0.0000000000        40.0000000000         0.0000000000
lattice         0.0000000000         0.0000000000        40.0000000000
atom        20.0000000000       20.0000000000       20.6264000000 O         0.0000000000         0.0000000000         0.0005073321        0.0000461211     -237.7510156378
atom        20.0000000000       20.0000000000       19.3736000000 O         0.0000000000         0.0000000000        -0.0005073321       -0.0000461211      237.7510156378
energy      -280.8535849426
charge 0
end
begin
comment generated by PY
lattice        40.0000000000         0.0000000000         0.0000000000
lattice         0.0000000000        40.0000000000         0.0000000000
lattice         0.0000000000         0.0000000000        40.0000000000
atom        20.0000000000       20.0000000000       20.5914000000 O         0.0000000000         0.0000000000         0.0001383633        0.0004612110     -150.0308815503
atom        20.0000000000       20.0000000000       19.4086000000 O         0.0000000000         0.0000000000        -0.0001383633       -0.0004612110      150.0308815503
energy      -294.7639433771
charge 0
end
begin
comment generated by PY
lattice        40.0000000000         0.0000000000         0.0000000000
lattice         0.0000000000        40.0000000000         0.0000000000
lattice         0.0000000000         0.0000000000        40.0000000000
atom        20.0000000000       20.0000000000       20.6497000000 O         0.0000000000         0.0000000000         0.0001153027        0.0000000000     -269.5011170181
atom        20.0000000000       20.0000000000       19.3503000000 O         0.0000000000         0.0000000000        -0.0001153027       -0.0000000000      269.5011170181
energy      -268.9693730489
charge 0
end
begin
comment generated by PY
lattice        40.0000000000         0.0000000000         0.0000000000
lattice         0.0000000000        40.0000000000         0.0000000000
lattice         0.0000000000         0.0000000000        40.0000000000
atom        20.0000000000       20.0000000000       20.6239000000 O         0.0000000000         0.0000000000         0.0003689688        0.0000922422     -233.2591450028
atom        20.0000000000       20.0000000000       19.3761000000 O         0.0000000000         0.0000000000        -0.0003689688       -0.0000922422      233.2591450028
energy      -282.0312807888
charge 0
end
begin
comment generated by PY
lattice        40.0000000000         0.0000000000         0.0000000000
lattice         0.0000000000        40.0000000000         0.0000000000
lattice         0.0000000000         0.0000000000        40.0000000000
atom        20.0000000000       20.0000000000       20.6190000000 O         0.0000000000         0.0000000000         0.0003228477        0.0000461211     -223.8142744896
atom        20.0000000000       20.0000000000       19.3810000000 O         0.0000000000         0.0000000000        -0.0003228477       -0.0000461211      223.8142744896
energy      -284.2716958776
charge 0
end
begin
comment generated by PY
lattice        40.0000000000         0.0000000000         0.0000000000
lattice         0.0000000000        40.0000000000         0.0000000000
lattice         0.0000000000         0.0000000000        40.0000000000
atom        20.0000000000       20.0000000000       20.6644000000 O         0.0000000000         0.0000000000        -0.0003228477        0.0000461211     -282.0058905583
atom        20.0000000000       20.0000000000       19.3356000000 O         0.0000000000         0.0000000000         0.0003228477       -0.0000461211      282.0058905583
energy      -260.8501811742
charge 0
end
begin
comment generated by PY
lattice        40.0000000000         0.0000000000         0.0000000000
lattice         0.0000000000        40.0000000000         0.0000000000
lattice         0.0000000000         0.0000000000        40.0000000000
atom        20.0000000000       20.0000000000       20.6175000000 O         0.0000000000         0.0000000000         0.0003459082        0.0000691816     -220.7239159591
atom        20.0000000000       20.0000000000       19.3825000000 O         0.0000000000         0.0000000000        -0.0003459082       -0.0000691816      220.7239159591
energy      -284.9385416912
charge 0
end
begin
comment generated by PY
lattice        40.0000000000         0.0000000000         0.0000000000
lattice         0.0000000000        40.0000000000         0.0000000000
lattice         0.0000000000         0.0000000000        40.0000000000
atom        20.0000000000       20.0000000000       20.6021000000 O         0.0000000000         0.0000000000         0.0001383633        0.0003228477     -183.2082502447
atom        20.0000000000       20.0000000000       19.3979000000 O         0.0000000000         0.0000000000        -0.0001383633       -0.0003228477      183.2082502447
energy      -291.1872623640
charge 0
end
begin
comment generated by PY
lattice        40.0000000000         0.0000000000         0.0000000000
lattice         0.0000000000        40.0000000000         0.0000000000
lattice         0.0000000000         0.0000000000        40.0000000000
atom        20.0000000000       20.0000000000       20.6549000000 O         0.0000000000         0.0000000000        -0.0000230605        0.0000000000     -274.5159468853
atom        20.0000000000       20.0000000000       19.3451000000 O         0.0000000000         0.0000000000         0.0000230605       -0.0000000000      274.5159468853
energy      -266.1378882159
charge 0
end
begin
comment generated by PY
lattice        40.0000000000         0.0000000000         0.0000000000
lattice         0.0000000000        40.0000000000         0.0000000000
lattice         0.0000000000         0.0000000000        40.0000000000
atom        20.0000000000       20.0000000000       20.6150000000 O         0.0000000000         0.0000000000         0.0002306055        0.0000691816     -215.3617899152