begin
comment generated by PY
lattice        40.0000000000         0.0000000000         0.0000000000
lattice         0.0000000000        40.0000000000         0.0000000000
lattice         0.0000000000         0.0000000000        40.0000000000
atom        16.9185000000        2.2112400000        6.0424300000 H         0.0000000000         0.0000000000        42.4925640804      -98.2550712551      -53.6299916912
atom        17.2432000000        1.3905400000        5.5866400000 O         0.0000000000         0.0000000000      -245.7534261295       10.7502981115      -57.2720522412
atom        16.1860000000        0.9208500000        5.0001600000 N         0.0000000000         0.0000000000       203.2615389886       87.5051031436      110.9015439324
energy      -441.9351464443
charge 0
end
begin
comment generated by PY
lattice        40.0000000000         0.0000000000         0.0000000000
lattice         0.0000000000        40.0000000000         0.0000000000
lattice         0.0000000000         0.0000000000        40.0000000000
atom        16.8906000000        2.2238900000        6.0434600000 H         0.0000000000         0.0000000000        52.3003861177     -100.6080981661      -52.6104079925
atom        17.2289000000        1.3806000000        5.5763500000 O         0.0000000000         0.0000000000      -246.2257664191       25.3970595153      -47.7464736406
atom        16.2043000000        0.9313100000        5.0118500000 N         0.0000000000         0.0000000000       193.9249572409       75.2110186508      100.3564816331
energy      -449.1474481478
charge 0
end
begin
comment generated by PY
lattice        40.0000000000         0.0000000000         0.0000000000
lattice         0.0000000000        40.0000000000         0.0000000000
lattice         0.0000000000         0.0000000000        40.0000000000
atom        16.9254000000        2.1985200000        6.0358700000 H         0.0000000000         0.0000000000        38.5404651497      -89.0313711191      -48.5909361548
atom        17.2315000000        1.3857800000        5.5804400000 O         0.0000000000         0.0000000000      -232.0615736782        7.0194044820      -56.1429210310
atom        16.1989000000        0.9272000000        5.0077100000 N         0.0000000000         0.0000000000       193.5214315890       82.0125266371      104.7335571858
energy      -450.8990484765
charge 0
end
begin
comment generated by PY
lattice        40.0000000000         0.0000000000         0.0000000000
lattice         0.0000000000        40.0000000000         0.0000000000
lattice         0.0000000000         0.0000000000        40.0000000000
atom        16.9326000000        2.2032600000        6.0408800000 H         0.0000000000         0.0000000000        37.2216167738      -93.6124714769      -51.9484370597
atom        17.2508000000        1.3947300000        5.5913900000 O         0.0000000000         0.0000000000      -243.3570765836        2.1696059330      -62.3056040025
atom        16.1763000000        0.9166300000        4.9948400000 N         0.0000000000         0.0000000000       206.1354598098       91.4428424833      114.2543410621
energy      -438.1703180219
charge 0
end
begin
comment generated by PY
lattice        40.0000000000         0.0000000000         0.0000000000
lattice         0.0000000000        40.0000000000         0.0000000000
lattice         0.0000000000         0.0000000000        40.0000000000
atom        16.9950000000        2.1841200000        6.0446100000 H         0.0000000000         0.0000000000        13.2483929639      -64.1392085193      -38.7800467375
atom        17.2793000000        1.4129300000        5.6108700000 O         0.0000000000         0.0000000000      -222.9446325810      -37.7438708962      -83.3151157964
atom        16.1392000000        0.8972000000        4.9723200000 N         0.0000000000         0.0000000000       209.6959165565      101.8832024761      122.0951625339
energy      -420.1304225221
charge 0
end
begin
comment generated by PY
lattice        40.0000000000         0.0000000000         0.0000000000
lattice         0.0000000000        40.0000000000         0.0000000000
lattice         0.0000000000         0.0000000000        40.0000000000
atom        16.9739000000        2.1715100000        6.0307700000 H         0.0000000000         0.0000000000        14.5694378553      -55.8089469300      -32.9446656080
atom        17.2788000000        1.4116300000        5.6098600000 O         0.0000000000         0.0000000000      -223.9864820999      -43.6887024929      -87.5040916089
atom        16.1414000000        0.8995900000        4.9744500000 N         0.0000000000         0.0000000000       209.4175442446       99.4980494229      120.4487572169
energy      -422.3123905413
charge 0
end
begin
comment generated by PY
lattice        40.0000000000         0.0000000000         0.0000000000
lattice         0.0000000000        40.0000000000         0.0000000000
lattice         0.0000000000         0.0000000000        40.0000000000
atom        17.0007000000        2.1718300000        6.0379900000 H         0.0000000000         0.0000000000         8.0770409905      -52.8768420656      -32.7143785223
atom        17.2646000000        1.4073000000        5.6033000000 O         0.0000000000         0.0000000000      -216.8996930305      -48.8212355802      -89.0284801155
atom        16.1557000000        0.9045100000        4.9814400000 N         0.0000000000         0.0000000000       208.8226520400      101.6985776458      121.7427816984
energy      -430.6813103439
charge 0
end
begin
comment generated by PY
lattice        40.0000000000         0.0000000000         0.0000000000
lattice         0.0000000000        40.0000000000         0.0000000000
lattice         0.0000000000         0.0000000000        40.0000000000
atom        16.8846000000        2.1697000000        6.0061700000 H         0.0000000000         0.0000000000        44.7061390189      -78.7068529726      -40.1672523418
atom        17.2465000000        1.3903300000        5.5873600000 O         0.0000000000         0.0000000000      -242.2206198109       -2.0509724228      -64.7828969284
atom        16.1847000000        0.9240600000        5.0019300000 N         0.0000000000         0.0000000000       197.5148038525       80.7579023349      104.9506492701
energy      -445.1523287445
charge 0
end
begin
comment generated by PY
lattice        40.0000000000         0.0000000000         0.0000000000
lattice         0.0000000000        40.0000000000         0.0000000000
lattice         0.0000000000         0.0000000000        40.0000000000
atom        16.8920000000        2.2217200000        6.0424000000 H         0.0000000000         0.0000000000        51.8401436434      -94.1176136305      -48.4479989647
atom        17.2174000000        1.3742200000        5.5691300000 O         0.0000000000         0.0000000000      -231.6346778964       29.1363433643      -41.4754894695
atom        16.2174000000        0.9387500000        5.0201700000 N         0.0000000000         0.0000000000       179.7946342530       64.9809702663       89.9229884342
energy      -456.3663081882
charge 0
end
begin
comment generated by PY
lattice        40.0000000000         0.0000000000         0.0000000000
lattice         0.0000000000        40.0000000000         0.0000000000
lattice         0.0000000000         0.0000000000        40.0000000000
atom        17.0883000000        2.2005800000        6.0798900000 H         0.0000000000         0.0000000000       -10.1612813429      -62.8067092712      -44.0692020293
atom        17.1890000000        1.3814900000        5.5664900000 O         0.0000000000         0.0000000000      -136.0485849389      -21.5128163024      -49.7908834790
atom        16.2358000000        0.9319600000        5.0205100000 N         0.0000000000         0.0000000000       146.2102262818       84.3198486342       93.8596855083
energy      -468.2741939614
charge 0
end
begin
comment generated by PY
lattice        40.0000000000         0.0000000000         0.0000000000
lattice         0.0000000000        40.0000000000         0.0000000000
lattice         0.0000000000         0.0000000000        40.0000000000
atom        16.8440000000        2.2853200000        6.0717500000 H         0.0000000000         0.0000000000        67.2527930127     -115.2530816116      -58.3463273985
atom        17.2448000000        1.3814400000        5.5810800000 O         0.0000000000         0.0000000000      -284.0607670406       35.5047332166      -50.9951874418
atom        16.1894000000        0.9259600000        5.0044200000 N         0.0000000000         0.0000000000       216.8076740279       79.7484253345      109.3413148403
energy      -429.2201977498
charge 0
end
begin
comment generated by PY
lattice        40.0000000000         0.0000000000         0.0000000000
lattice         0.0000000000        40.0000000000         0.0000000000
lattice         0.0000000000         0.0000000000        40.0000000000
atom        16.9700000000        2.2353400000        6.0718000000 H         0.0000000000         0.0000000000        31.5358516647     -106.3793701712      -61.8453306238
atom        17.2539000000        1.3973200000        5.5939100000 O         0.0000000000         0.0000000000      -243.4403953040        7.8783317952      -58.5772325693
atom        16.1701000000        0.9113800000        4.9897500000 N         0.0000000000         0.0000000000       211.9051666999       98.5009383760      120.4223631931
energy      -431.1768583077
charge 0
end
begin
comment generated by PY
lattice        40.0000000000         0.0000000000         0.0000000000
lattice         0.0000000000        40.0000000000         0.0000000000
lattice         0.0000000000         0.0000000000        40.0000000000
atom        16.7722000000        2.1641400000        5.9730800000 H         0.0000000000         0.0000000000        81.5097107125      -91.9967804306      -39.2839886491
atom        17.2372000000        1.3770200000        5.5761700000 O         0.0000000000         0.0000000000      -256.3801139264       38.6995263543      -41.6442629514
atom        16.2033000000        0.9396700000        5.0170700000 N         0.0000000000         0.0000000000       174.8705262745       53.2969471368       80.9285516004
energy      -448.5919726793
charge 0
end
begin
comment generated by PY
lattice        40.0000000000         0.0000000000         0.0000000000
lattice         0.0000000000        40.0000000000         0.0000000000
lattice         0.0000000000         0.0000000000        40.0000000000
atom        16.9388000000        2.2855400000        6.0967200000 H         0.0000000000         0.0000000000        45.1969614596     -125.8202722954      -71.0664936669
atom        17.2728000000        1.4009700000        5.6012800000 O         0.0000000000         0.0000000000      -263.4660985063       27.2541888534      -51.0815751390
atom        16.1507000000        0.9036200000        4.9795500000 N         0.0000000000         0.0000000000       218.2691370467       98.5661234420      122.1480688059
energy      -410.9885380493
charge 0
end
begin
comment generated by PY
lattice        40.0000000000         0.0000000000         0.0000000000
lattice         0.0000000000        40.0000000000         0.0000000000
lattice         0.0000000000         0.0000000000        40.0000000000
atom        17.1264000000        2.2286700000        6.1083800000 H         0.0000000000         0.0000000000        -8.9198188620      -88.0935808289      -60.3722084135
atom        17.2587000000        1.4130400000        5.6055200000 O         0.0000000000         0.0000000000      -201.0333502535      -27.6488896462      -70.9229416564
atom        16.1535000000        0.8938900000        4.9738700000 N         0.0000000000         0.0000000000       209.9532921760      115.7422704751      131.2951731305
energy      -421.6029178338
charge 0
end
begin
comment generated by PY
lattice        40.0000000000         0.0000000000         0.0000000000
lattice         0.0000000000        40.0000000000         0.0000000000
lattice         0.0000000000         0.0000000000        40.0000000000
atom        16.9160000000        2.2241600000        6.0502900000 H         0.0000000000         0.0000000000        46.0323151154     -107.4708151642      -58.7501351639
atom        17.2832000000        1.4078800000        5.6085500000 O         0.0000000000         0.0000000000      -256.7773346066       12.1766046987      -59.2734000716
atom        16.1405000000        0.9001100000        4.9745600000 N         0.0000000000         0.0000000000       210.7455964306       95.2940104655      118.0235582960
energy      -414.0640535542
charge 0
end
begin
comment generated by PY
lattice        40.0000000000         0.0000000000         0.0000000000
lattice         0.0000000000        40.0000000000         0.0000000000
lattice         0.0000000000         0.0000000000        40.0000000000
atom        16.8329000000        2.1607700000        5.9867500000 H         0.0000000000         0.0000000000        54.2992292613      -78.7255653274      -37.6463160116
atom        17.2977000000        1.4134000000        5.6159800000 O         0.0000000000         0.0000000000      -259.6145807276       -8.4125173465      -73.5743456710
atom        16.1299000000        0.8983300000        4.9706100000 N         0.0000000000         0.0000000000       205.3154514663       87.1377826738      111.2206847432
energy      -411.7097574899
charge 0
end
begin
comment generated by PY
lattice        40.0000000000         0.0000000000         0.0000000000
lattice         0.0000000000        40.0000000000         0.0000000000
lattice         0.0000000000         0.0000000000        40.0000000000
atom        17.0267000000        2.2651100000        6.1062700000 H         0.0000000000         0.0000000000        19.9813720745     -114.9094746229      -70.4811542086
atom        17.2635000000        1.4051900000        5.6016100000 O         0.0000000000         0.0000000000      -235.6209202467        7.6324423046      -56.7183671028
atom        16.1551000000        0.9002600000        4.9784900000 N         0.0000000000         0.0000000000       215.6398481722      107.2770553789      127.1994982509
energy      -418.5059672559
charge 0
end
begin
comment generated by PY
lattice        40.0000000000         0.0000000000         0.0000000000
lattice         0.0000000000        40.0000000000         0.0000000000
lattice         0.0000000000         0.0000000000        40.0000000000
atom        16.9518000000        2.2362600000        6.0676600000 H         0.0000000000         0.0000000000        33.7439454236      -97.3520524970      -55.3291771897
atom        17.2208000000        1.3833000000        5.5760000000 O         0.0000000000         0.0000000000      -228.3183360245       12.2143651788      -51.7419331620
atom        16.2092000000        0.9273400000        5.0105100000 N         0.0000000000         0.0000000000       194.5743906009       85.1375103787      107.0709872911
energy      -451.8341067642
charge 0
end
begin
comment generated by PY
lattice        40.0000000000         0.0000000000         0.0000000000
lattice         0.0000000000        40.0000000000         0.0000000000
lattice         0.0000000000         0.0000000000        40.0000000000
atom        16.8499000000        2.1813200000        6.0047500000 H         0.0000000000         0.0000000000        58.7748963493      -89.3734201752      -43.5142007313
atom        17.2351000000        1.3835100000        5.5799000000 O         0.0000000000         0.0000000000      -245.9787227197       19.5651655333      -51.5232481967
atom        16.2001000000        0.9310300000        5.0105600000 N         0.0000000000         0.0000000000       187.2043033098       69.8086046419       95.0373258675
energy      -450.0880085403
charge 0
end
begin
comment generated by PY
lattice        40.0000000000         0.0000000000         0.0000000000
lattice         0.0000000000        40.0000000000         0.0000000000
lattice         0.0000000000         0.0000000000        40.0000000000
atom        17.0201000000        2.1820000000        6.0497800000 H         0.0000000000         0.0000000000         5.6164186724      -58.5000118766      -37.0636631150
atom        17.2642000000        1.4097200000        5.6047900000 O         0.0000000000         0.0000000000      -214.6146212381      -46.2812859148      -86.7599633221
atom        16.1547000000        0.9010300000        4.9788900000 N         0.0000000000         0.0000000000       208.9977025656      104.7811208519      123.8236264370
energy      -428.7794601218
charge 0
end
begin
comment generated by PY
lattice        40.0000000000         0.0000000000         0.0000000000
lattice         0.0000000000        40.0000000000         0.0000000000
lattice         0.0000000000         0.0000000000        40.0000000000
atom        16.9567000000        2.1750900000        6.0286300000 H         0.0000000000         0.0000000000        21.4753357758      -66.1205224301      -37.9400191699
atom        17.2599000000        1.4033200000        5.5994500000 O         0.0000000000         0.0000000000      -228.6979849901      -30.5582176579      -80.0665634801
atom        16.1641000000        0.9088300000        4.9865000000 N         0.0000000000         0.0000000000       207.2220722748       96.6785400880      118.0062826501
energy      -434.5502661676
charge 0
end
begin
comment generated by PY
lattice        40.0000000000         0.0000000000         0.0000000000
lattice         0.0000000000        40.0000000000         0.0000000000
lattice         0.0000000000         0.0000000000        40.0000000000
atom        16.9012000000        2.1973600000        6.0287400000 H         0.0000000000         0.0000000000        44.8859520579      -93.6163475345      -49.9390916286
atom        17.2517000000        1.3946200000        5.5915500000 O         0.0000000000         0.0000000000      -249.2863864921        5.7487009626      -61.5076619615
atom        16.1776000000        0.9171800000        4.9955200000 N         0.0000000000         0.0000000000       204.4006344341       87.8673465719      111.4468305295
energy      -438.2059369447
charge 0
end
begin
comment generated by PY
lattice        40.0000000000         0.0000000000         0.0000000000
lattice         0.0000000000        40.0000000000         0.0000000000
lattice         0.0000000000         0.0000000000        40.0000000000
atom        16.9293000000        2.2168100000        6.0489400000 H         0.0000000000         0.0000000000        42.1199216061     -102.0572936276      -56.2340223710
atom        17.2476000000        1.3882800000        5.5863100000 O         0.0000000000         0.0000000000      -248.7224288601       14.2596906835      -55.7397946705
atom        16.1802000000        0.9230400000        5.0000700000 N         0.0000000000         0.0000000000       206.6023072540       87.7979029441      111.9734170415
energy      -439.3539880405
charge 0
end
begin
comment generated by PY
lattice        40.0000000000         0.0000000000         0.0000000000
lattice         0.0000000000        40.0000000000         0.0000000000
lattice         0.0000000000         0.0000000000        40.0000000000
atom        16.8967000000        2.1987300000        6.0284700000 H         0.0000000000         0.0000000000        47.0994127945      -96.4044131566      -51.1854792919
atom        17.2657000000        1.3988600000        5.5980200000 O         0.0000000000         0.0000000000      -255.3970884759        6.4661448221      -62.6564179816
atom        16.1619000000        0.9122300000        4.9881600000 N         0.0000000000         0.0000000000       208.2978756814       89.9379683346      113.8420203340
energy      -429.3409673001
charge 0
end
begin
comment generated by PY
lattice        40.0000000000         0.0000000000         0.0000000000
lattice         0.0000000000        40.0000000000         0.0000000000
lattice         0.0000000000         0.0000000000        40.0000000000
atom        17.0147000000        2.2114100000        6.0677500000 H         0.0000000000         0.0000000000        13.5196608909      -81.6159640190      -50.2544325417
atom        17.2111000000        1.3824400000        5.5728900000 O         0.0000000000         0.0000000000      -194.0222642857       -5.2676248620      -54.2811315276
atom        16.2158000000        0.9301000000        5.0140600000 N         0.0000000000         0.0000000000       180.5031033948       86.8841788810      104.5355640693
energy      -459.6521495293
charge 0
end
begin
comment generated by PY
lattice        40.0000000000         0.0000000000         0.0000000000
lattice         0.0000000000        40.0000000000         0.0000000000
lattice         0.0000000000         0.0000000000        40.0000000000
atom        16.9386000000        2.2541300000        6.0759600000 H         0.0000000000         0.0000000000        43.2929698087     -117.3465056891      -65.9867517205
atom        17.2651000000        1.3975600000        5.5970100000 O         0.0000000000         0.0000000000      -258.5131329947       21.2713444857      -53.7123429559
atom        16.1595000000        0.9097600000        4.9859100000 N         0.0000000000         0.0000000000       215.2200631860       96.0751381429      119.6990946764
energy      -421.7002579292
charge 0
end
begin
comment generated by PY
lattice        40.0000000000         0.0000000000         0.0000000000
lattice         0.0000000000        40.0000000000         0.0000000000
lattice         0.0000000000         0.0000000000        40.0000000000
atom        17.0989000000        2.1625900000        6.0576400000 H         0.0000000000         0.0000000000       -17.9741514038      -15.7404660842      -15.0603202965
atom        17.2742000000        1.4168600000        5.6121100000 O         0.0000000000         0.0000000000      -190.8758305636      -94.5131279958     -112.3348305056
atom        16.1377000000        0.8942400000        4.9699600000 N         0.0000000000         0.0000000000       208.8502819674      110.2533940800      127.3952008022
energy      -420.0026344421
charge 0
end
begin
comment generated by PY
lattice        40.0000000000         0.0000000000         0.0000000000
lattice         0.0000000000        40.0000000000         0.0000000000
lattice         0.0000000000         0.0000000000        40.0000000000
atom        16.8822000000        2.2280400000        6.0440000000 H         0.0000000000         0.0000000000        57.0089187199     -113.7927372316      -60.0426835007
atom        17.2839000000        1.4032800000        5.6057100000 O         0.0000000000         0.0000000000      -268.0495013641       22.8655081535      -55.1763242905
atom        16.1420000000        0.9050900000        4.9782500000 N         0.0000000000         0.0000000000       211.0409826442       90.9272521386      115.2190308517
energy      -413.3867171927
charge 0
end
begin
comment generated by PY
lattice        40.0000000000         0.0000000000         0.0000000000
lattice         0.0000000000        40.0000000000         0.0000000000
lattice         0.0000000000         0.0000000000        40.0000000000
atom        16.9767000000        2.2735000000        6.0987100000 H         0.0000000000         0.0000000000        37.0946958418     -123.9698629200      -71.9681014786
atom        17.2875000000        1.4072000000        5.6092300000 O         0.0000000000         0.0000000000      -251.7776262056       23.7882891111      -50.3055307071
atom        16.1312000000        0.8973700000        4.9703300000 N         0.0000000000         0.0000000000       214.6825303638      100.1815968695      122.2736321856
energy      -403.7809361989
charge 0
end
begin
comment generated by PY
lattice        40.0000000000         0.0000000000         0.0000000000
lattice         0.0000000000        40.0000000000         0.0000000000
lattice         0.0000000000         0.0000000000        40.0000000000
atom        16.9701000000        2.2739600000        6.0972700000 H         0.0000000000         0.0000000000        39.4428895441     -124.8262555762      -71.9151604271
atom        17.2945000000        1.4099500000        5.6128900000 O         0.0000000000         0.0000000000      -252.3149335093       25.5782735982      -49.2730257965
atom        16.1237000000        0.8941900000        4.9662500000 N         0.0000000000         0.0000000000       212.8718670258       99.2479819780      121.1880862236
energy      -399.2339810238
charge 0
end
begin
comment generated by PY
lattice        40.0000000000         0.0000000000         0.0000000000
lattice         0.0000000000        40.0000000000         0.0000000000
lattice         0.0000000000         0.0000000000        40.0000000000
atom        16.9310000000        2.2775700000        6.0894200000 H         0.0000000000         0.0000000000        47.3804173159     -123.9797252457      -69.2875816538
atom        17.2688000000        1.3957800000        5.5968100000 O         0.0000000000         0.0000000000      -266.1291816902       28.4344249905      -50.9881078568
atom        16.1558000000        0.9101300000        4.9851800000 N         0.0000000000         0.0000000000       218.7484643743       95.5452602552      120.2756895106
energy      -415.7556977103
charge 0
end
begin
comment generated by PY
lattice        40.0000000000         0.0000000000         0.0000000000
lattice         0.0000000000        40.0000000000         0.0000000000
lattice         0.0000000000         0.0000000000        40.0000000000
atom        16.9722000000        2.2798400000        6.1017200000 H         0.0000000000         0.0000000000        38.7698646289     -126.0637627635      -72.9093668050
atom        17.2885000000        1.4070000000        5.6093700000 O         0.0000000000         0.0000000000      -253.8145045390       26.1815733720      -49.2662224650
atom        16.1304000000        0.8971400000        4.9699500000 N         0.0000000000         0.0000000000       215.0445399102       99.8821893915      122.1755892700
energy      -402.0937397119
charge 0
end
begin
comment generated by PY
lattice        40.0000000000         0.0000000000         0.0000000000
lattice         0.0000000000        40.0000000000         0.0000000000
lattice         0.0000000000         0.0000000000        40.0000000000
atom        16.9501000000        2.2243200000        6.0593200000 H         0.0000000000         0.0000000000        37.1658329508     -104.8639903050      -59.3715274935
atom        17.2583000000        1.3948900000        5.5934600000 O         0.0000000000         0.0000000000      -248.6141593015       10.5377689389      -58.1770843168
atom        16.1665000000        0.9149400000        4.9911600000 N         0.0000000000         0.0000000000       211.4483263507       94.3261213661      117.5488118102
energy      -431.0591668234
charge 0
end
begin
comment generated by PY
lattice        40.0000000000         0.0000000000         0.0000000000
lattice         0.0000000000        40.0000000000         0.0000000000
lattice         0.0000000000         0.0000000000        40.0000000000
atom        16.9285000000        2.1854600000        6.0280700000 H         0.0000000000         0.0000000000        35.2895889353      -83.2716868497      -45.6202572038
atom        17.2738000000        1.4023400000        5.6024500000 O         0.0000000000         0.0000000000      -245.0334039481       -9.7884906446      -70.6687897914
atom        16.1503000000        0.9092100000        4.9831200000 N         0.0000000000         0.0000000000       209.7440380733       93.0596774943      116.2890469952
energy      -426.1931883151
charge 0
end
begin
comment generated by PY
lattice        40.0000000000         0.0000000000         0.0000000000
lattice         0.0000000000        40.0000000000         0.0000000000
lattice         0.0000000000         0.0000000000        40.0000000000
atom        17.1394000000        2.2562000000        6.1299200000 H         0.0000000000         0.0000000000        -4.4109416074     -106.7291729908      -71.4715855999
atom        17.2791000000        1.4134000000        5.6111300000 O         0.0000000000         0.0000000000      -207.7097449890       -5.7233382041      -58.2256250793
atom        16.1291000000        0.8915100000        4.9659200000 N         0.0000000000         0.0000000000       212.1201865964      112.4526111949      129.6972337398
energy      -406.3111598970
charge 0
end
begin
comment generated by PY
lattice        40.0000000000         0.0000000000         0.0000000000
lattice         0.0000000000        40.0000000000         0.0000000000
lattice         0.0000000000         0.0000000000        40.0000000000
atom        16.9391000000        2.2035600000        6.0427700000 H         0.0000000000         0.0000000000        36.7932288505      -93.2623533519      -51.8101929067
atom        17.2903000000        1.4096000000        5.6115500000 O         0.0000000000         0.0000000000      -246.9340631780       -2.2064153974      -66.1703342896
atom        16.1307000000        0.8996200000        4.9716700000 N         0.0000000000         0.0000000000       210.1408343275       95.4685918098      117.9804271962
energy      -413.0532158521
charge 0
end
begin
comment generated by PY
lattice        40.0000000000         0.0000000000         0.0000000000
lattice         0.0000000000        40.0000000000         0.0000000000
lattice         0.0000000000         0.0000000000        40.0000000000
atom        16.9989000000        2.2023600000        6.0576400000 H         0.0000000000         0.0000000000        20.2006441830      -84.3602637957      -50.2858319030