begin
comment generated by PY
lattice        20.0000000000         0.0000000000         0.0000000000
lattice         0.0000000000        20.0000000000         0.0000000000
lattice         0.0000000000         0.0000000000        20.0000000000
atom         8.7481000000        7.8469400000       10.1068000000 H         0.0000000000         0.0000000000        57.0020865598       95.9518249886        0.9847819063
atom         8.7399100000       12.1462000000       10.1050000000 H         0.0000000000         0.0000000000        56.9480001869      -95.8411173281        1.0583127954
atom        13.3483000000       10.2833000000        9.1804500000 H         0.0000000000         0.0000000000       -42.6873792423      -23.3066355735      106.6771378785
atom        13.3161000000       10.8030000000       10.8623000000 H         0.0000000000         0.0000000000       -44.1690220954      -78.9350057952      -80.3686928603
atom        13.3869000000        9.0879700000       10.4764000000 H         0.0000000000         0.0000000000       -55.6370312073      101.0587784140      -38.0876501212
atom        11.3888000000        9.9997600000       10.1428000000 C         0.0000000000         0.0000000000        24.9774507166        4.7354608000       -3.7448336758
atom        10.7012000000        8.7640300000       10.1223000000 C         0.0000000000         0.0000000000       -28.8383374909        2.3419147416        1.0426977268
atom        10.6947000000       11.2319000000       10.1198000000 C         0.0000000000         0.0000000000       -27.1620182747       -2.4788979291        1.3285314135
atom         8.5736700000        9.9955300000       10.1168000000 C         0.0000000000         0.0000000000        10.8942903900        0.6266478041       -1.4377408940
atom         9.2925900000        8.7815500000       10.1154000000 C         0.0000000000         0.0000000000         9.7261945534       25.4341268158       -0.2486826257
atom         9.2865000000       11.2129000000       10.1142000000 C         0.0000000000         0.0000000000        11.4440406477      -25.1356974203       -0.4075423251
atom        12.9440000000       10.0395000000       10.1705000000 C         0.0000000000         0.0000000000        -1.2960965925       -4.2237992799       10.5874016539
atom        10.6306000000        6.2937600000       10.1045000000 O         0.0000000000         0.0000000000       178.9915198770      276.9626151311        2.4200437152
atom        10.6573000000       13.7056000000       10.1119000000 O         0.0000000000         0.0000000000       173.6295829757     -279.3722823392       -0.3573758618
atom        12.6827000000        7.2431300000       10.0758000000 O         0.0000000000         0.0000000000      -327.1580057056       34.3979486744        8.4431552422
atom        12.6937000000       12.7189000000       10.0568000000 O         0.0000000000         0.0000000000      -328.6859645296      -28.3457536006       11.4474198708
atom         6.3674400000        8.8616300000       10.1105000000 O         0.0000000000         0.0000000000       174.8742271842      279.5351016203        0.1173559981
atom         6.3690000000       11.1304000000       10.1105000000 O         0.0000000000         0.0000000000       174.4094264573     -279.8059763794        0.1105824685
atom        11.3862000000        7.3543600000       10.1093000000 N         0.0000000000         0.0000000000        54.6241204976     -121.8115884886       -9.7471994926
atom        11.3957000000       12.6329000000       10.1048000000 N         0.0000000000         0.0000000000        57.1234260446      118.1541568092      -10.3497461917
atom         7.0071000000        9.9955400000       10.1111000000 N         0.0000000000         0.0000000000      -129.0106078920        0.0579242741        0.5320231793
energy     -4356.0447558599
charge 0
end
begin
comment generated by PY
lattice        20.0000000000         0.0000000000         0.0000000000
lattice         0.0000000000        20.0000000000         0.0000000000
lattice         0.0000000000         0.0000000000        20.0000000000
atom         8.7650400000        7.7288500000       10.1457000000 H         0.0000000000         0.0000000000        53.8202443269      117.5155053391      -24.0009298560
atom         8.7619800000       12.1324000000        9.9357200000 H         0.0000000000         0.0000000000        44.8856470487      -92.7524579327       27.5719784630
atom        13.3019000000       10.9303000000        9.7415400000 H         0.0000000000         0.0000000000       -44.8155790154      -82.5297991098       21.4432840342
atom        13.3825000000        9.5912100000       10.7916000000 H         0.0000000000         0.0000000000       -56.2694894614       48.0030385876      -77.7843183974
atom        13.2623000000        9.2919000000        9.2581400000 H         0.0000000000         0.0000000000       -49.4579868766       73.7383314120       63.3534156533
atom        11.3317000000       10.0139000000       10.0800000000 C         0.0000000000         0.0000000000        47.2490519397       -8.6574743256      -32.0099148465
atom        10.6590000000        8.7831000000       10.0277000000 C         0.0000000000         0.0000000000       -24.1215871374       -7.9600604416        5.2995920342
atom        10.6777000000       11.2292000000       10.0552000000 C         0.0000000000         0.0000000000       -54.9872190327        2.5663105226       39.2977667181
atom         8.5525400000        9.9675500000       10.0846000000 C         0.0000000000         0.0000000000         6.7967838057       24.7237649499       -8.4581131152
atom         9.2664000000        8.7448300000       10.0136000000 C         0.0000000000         0.0000000000         9.4689338685       21.1700421921       40.5888300294
atom         9.2718400000       11.2096000000       10.1048000000 C         0.0000000000         0.0000000000        20.1056316198      -41.9371723690      -46.9903179200
atom        12.8764000000       10.0049000000        9.9513700000 C         0.0000000000         0.0000000000         5.8361607324      -30.3329868997       10.0949330976
atom        10.8008000000        6.3079500000        9.7305900000 O         0.0000000000         0.0000000000       131.5213247977      287.9254697889       73.4086066427
atom        11.1055000000       13.4584000000        9.2151700000 O         0.0000000000         0.0000000000        54.6592243501     -201.0992693022      248.2226768779
atom        12.6793000000        7.3529700000       10.3243000000 O         0.0000000000         0.0000000000      -315.1006497526       20.7065684141      -70.1554672315
atom        12.2934000000       12.7637000000       11.0545000000 O         0.0000000000         0.0000000000      -242.9709701566      -23.6084164505     -221.4643618785
atom         6.3066800000        8.9406500000       10.0914000000 O         0.0000000000         0.0000000000       179.1866360440      272.3534761708       -2.9913976339
atom         6.4506900000       11.1270000000       10.6468000000 O         0.0000000000         0.0000000000       142.5000762234     -256.9707489388     -139.1226816494
atom        11.3997000000        7.3887200000       10.0243000000 N         0.0000000000         0.0000000000        86.7542168178     -119.5102620360       -1.3139337734
atom        11.3505000000       12.6488000000       10.1549000000 N         0.0000000000         0.0000000000       110.5409663673       29.1028746531      -48.1038397062
atom         6.9853600000       10.0455000000       10.1459000000 N         0.0000000000         0.0000000000      -105.6013434490      -32.4457881034      143.1147754577
energy     -4371.7135849835
charge 0
end
begin
comment generated by PY
lattice        20.0000000000         0.0000000000         0.0000000000
lattice         0.0000000000        20.0000000000         0.0000000000
lattice         0.0000000000         0.0000000000        20.0000000000
atom         8.7940900000        7.8059800000       10.0887000000 H         0.0000000000         0.0000000000        59.2331639377      107.6931831794      -16.8473301004
atom         8.7682200000       12.1754000000       10.1225000000 H         0.0000000000         0.0000000000        41.6545014017      -97.3021428344       10.7468031764
atom        13.2152000000        8.9843500000        9.7699700000 H         0.0000000000         0.0000000000       -26.9268084972      103.4393224911       64.3293232955
atom        13.3524000000       10.6397000000        9.5534600000 H         0.0000000000         0.0000000000       -39.2746587623      -54.6617449828       63.7085832421
atom        13.3168000000       10.1774000000       11.1887000000 H         0.0000000000         0.0000000000       -43.2794020416      -28.5534976478     -103.6741032165
atom        11.3730000000       10.0035000000       10.0628000000 C         0.0000000000         0.0000000000        32.0498155618       -2.7468338479       15.3337097233
atom        10.7281000000        8.7545100000        9.9736300000 C         0.0000000000         0.0000000000       -42.1733470397       21.1923652885       10.9754201284
atom        10.6609000000       11.2171000000       10.0872000000 C         0.0000000000         0.0000000000       -52.7528101634       -0.5689844948       32.5528133597
atom         8.5903300000        9.9874100000       10.1218000000 C         0.0000000000         0.0000000000        -2.5327955510        8.6768155071       -6.3126916867
atom         9.3421200000        8.7754400000        9.9954500000 C         0.0000000000         0.0000000000       -11.9851277285       11.6829697649       37.2799425729
atom         9.2493700000       11.2233000000       10.1667000000 C         0.0000000000         0.0000000000        45.0146792141      -43.1610603170      -36.2201193694
atom        12.9265000000        9.9501900000       10.2015000000 C         0.0000000000         0.0000000000       -26.3005649360       -6.1874505857      -47.5850732385
atom        10.6302000000        6.3447400000       10.1027000000 O         0.0000000000         0.0000000000       208.5760158117      247.9602489077      -38.6899838101
atom        10.6883000000       13.7793000000       10.0148000000 O         0.0000000000         0.0000000000       155.1674544669     -289.7725074940       59.5164602738
atom        12.7340000000        7.2549400000        9.9611700000 O         0.0000000000         0.0000000000      -332.1042522673       -2.0283165810       -3.1693580361
atom        12.6164000000       12.6286000000       10.4250000000 O         0.0000000000         0.0000000000      -322.3065928691       28.8149204026      -42.3405451830
atom         6.3442900000        8.9142200000       10.3517000000 O         0.0000000000         0.0000000000       191.4651580354      261.8548595577      -41.8586813205
atom         6.4111500000       11.1127000000        9.9004000000 O         0.0000000000         0.0000000000       171.1859133320     -267.8484391473       69.4590804804
atom        11.4181000000        7.3143300000        9.9711500000 N         0.0000000000         0.0000000000        34.7246955112      -75.6007073066       44.4307324461
atom        11.3273000000       12.7020000000       10.2281000000 N         0.0000000000         0.0000000000       103.3462627569       76.1542206383      -35.1370763800
atom         7.0327700000        9.9986700000       10.1654000000 N         0.0000000000         0.0000000000      -142.7819843547        0.9642995020      -36.4983663573
energy     -4357.4962088147
charge 0
end
begin
comment generated by PY
lattice        20.0000000000         0.0000000000         0.0000000000
lattice         0.0000000000        20.0000000000         0.0000000000
lattice         0.0000000000         0.0000000000        20.0000000000
atom         8.6857400000        7.9447100000       10.1615000000 H         0.0000000000         0.0000000000        54.7608415948       90.2060988540      -19.6210461212
atom         8.8162300000       12.2260000000       10.1113000000 H         0.0000000000         0.0000000000        45.7100341601     -100.0974595297       15.3831149180
atom        13.2855000000        9.1088200000        9.3261200000 H         0.0000000000         0.0000000000       -62.8994264927       81.3870305976       82.8871165651
atom        13.3093000000       10.8978000000        9.4574300000 H         0.0000000000         0.0000000000       -57.8222303139     -107.3099431218       68.0881093901
atom        13.2801000000        9.8720900000       11.0131000000 H         0.0000000000         0.0000000000       -35.1481333564       -0.0921394220     -117.9258446708
atom        11.3467000000       10.0416000000       10.1576000000 C         0.0000000000         0.0000000000        37.3973272792      -51.4467130315      -34.6250304741
atom        10.6741000000        8.7456500000       10.1212000000 C         0.0000000000         0.0000000000       -27.4910163381       48.2149066028       -6.4904817738
atom        10.7004000000       11.2598000000       10.2460000000 C         0.0000000000         0.0000000000       -16.8679956648        0.9477625561       -1.8219005312
atom         8.5656700000       10.0911000000       10.1147000000 C         0.0000000000         0.0000000000        17.3012553472      -41.9673109260      -13.7592957110
atom         9.2611300000        8.8437600000       10.0620000000 C         0.0000000000         0.0000000000        19.6748203963       11.0977133024       44.6641203259
atom         9.2986300000       11.2601000000       10.1928000000 C         0.0000000000         0.0000000000         8.9606623408       -1.5640535236      -12.6236082811
atom        12.8582000000        9.9132400000        9.9695500000 C         0.0000000000         0.0000000000        23.7317788442       61.0863017168        3.7401319764
atom        10.6789000000        6.3737700000       10.3872000000 O         0.0000000000         0.0000000000       167.6783389542      261.3184239054      -68.6239227732
atom        11.0134000000       13.6102000000       11.0196000000 O         0.0000000000         0.0000000000        93.1729675361     -272.2304521535     -165.8249223522
atom        12.7153000000        7.2007500000        9.9573000000 O         0.0000000000         0.0000000000      -318.6436504818       57.7886928732       36.2976231000
atom        12.4174000000       12.8189000000        9.4484900000 O         0.0000000000         0.0000000000      -234.6346867196      -63.6856256747      211.5874965036
atom         6.4678100000        8.8124800000        9.7941600000 O         0.0000000000         0.0000000000       144.7637222658      290.6981394111       58.1792903186
atom         6.2241600000       11.0555000000        9.9340000000 O         0.0000000000         0.0000000000       206.2493049390     -257.9679947320       22.8805456283
atom        11.4005000000        7.3796000000       10.1245000000 N         0.0000000000         0.0000000000        34.9405547448     -134.4301000792       35.0667990335
atom        11.4350000000       12.6132000000       10.3204000000 N         0.0000000000         0.0000000000        37.1970312470      142.1898181788      -69.2572827600
atom         6.9840400000        9.9802200000        9.9935700000 N         0.0000000000         0.0000000000      -138.0312722216      -14.1416058648      -68.2006723109
energy     -4321.0606426376
charge 0
end
begin
comment generated by PY
lattice        20.0000000000         0.0000000000         0.0000000000
lattice         0.0000000000        20.0000000000         0.0000000000
lattice         0.0000000000         0.0000000000        20.0000000000
atom         8.7584000000        7.9679400000       10.1915000000 H         0.0000000000         0.0000000000        66.2950555862       75.4715720138      -17.7956076751
atom         8.7086000000       12.1196000000       10.1726000000 H         0.0000000000         0.0000000000        61.4041034634      -91.4202670724        5.4466790565
atom        13.3962000000       11.0962000000        9.9773600000 H         0.0000000000         0.0000000000       -60.7045876193     -127.2014313572       -6.7196756353
atom        13.4671000000        9.5898000000       10.8194000000 H         0.0000000000         0.0000000000       -55.4841452450       27.9972936474      -89.8057469213
atom        13.3709000000        9.5359400000        9.0068000000 H         0.0000000000         0.0000000000       -48.7955544685       43.3924381684      111.4813942332
atom        11.4296000000       10.0349000000       10.0667000000 C         0.0000000000         0.0000000000        -1.9574117525      -11.2823044778       28.3268928042
atom        10.6889000000        8.8117400000       10.1458000000 C         0.0000000000         0.0000000000        -1.6434241496       21.5135187169      -28.0178079637
atom        10.6875000000       11.2297000000       10.1927000000 C         0.0000000000         0.0000000000         4.2790310710        4.2191579520      -24.6317864375
atom         8.5358900000       10.0227000000       10.1635000000 C         0.0000000000         0.0000000000        49.8345937110        8.8409508223      -16.7553073679
atom         9.3549800000        8.8455500000       10.0921000000 C         0.0000000000         0.0000000000       -60.6557279849       10.6449641502       45.3636831207
atom         9.2650300000       11.1937000000       10.1898000000 C         0.0000000000         0.0000000000        -2.3577571441       -5.6383441822       -2.8427532986
atom        12.9737000000       10.0008000000        9.9625400000 C         0.0000000000         0.0000000000        16.4815320923       49.6190448094       -6.0204186681
atom        10.7323000000        6.3079600000        9.8042900000 O         0.0000000000         0.0000000000       149.0030486657      269.6890929165       87.0233752713
atom        10.6434000000       13.6474000000       10.1883000000 O         0.0000000000         0.0000000000       188.1853847383     -271.2161302205        2.6436320568
atom        12.6517000000        7.2273900000       10.4151000000 O         0.0000000000         0.0000000000      -317.0424766224       36.7321077936      -63.3847079525
atom        12.7194000000       12.6690000000       10.0561000000 O         0.0000000000         0.0000000000      -324.9514667102       -2.5842821909       36.1530991394
atom         6.3548300000        8.8978400000        9.8931300000 O         0.0000000000         0.0000000000       161.9998049712      279.9785642576       60.2716284433
atom         6.3039000000       11.1489000000       10.2174000000 O         0.0000000000         0.0000000000       175.4100070378     -281.2192148211      -22.0115952446
atom        11.3915000000        7.3185500000       10.1392000000 N         0.0000000000         0.0000000000        88.8206506961     -132.7084916406      -24.6816319514
atom        11.3846000000       12.6034000000       10.1823000000 N         0.0000000000         0.0000000000        29.6364135040       97.2837985881      -40.1474398586
atom         6.9497100000       10.0155000000       10.1151000000 N         0.0000000000         0.0000000000      -117.7570507802       -2.1120448129      -33.8959692113
energy     -4347.1037132744
charge 0
end
begin
comment generated by PY
lattice        20.0000000000         0.0000000000         0.0000000000
lattice         0.0000000000        20.0000000000         0.0000000000
lattice         0.0000000000         0.0000000000        20.0000000000
atom         8.6486100000        7.8929100000       10.1696000000 H         0.0000000000         0.0000000000        65.1119904461      105.7974146580      -12.6491582185
atom         8.7804400000       12.2175000000        9.8977600000 H         0.0000000000         0.0000000000        54.0743617769     -102.4495950435       18.8193255162
atom        13.1757000000        9.9564600000       11.3047000000 H         0.0000000000         0.0000000000        -8.6565667147      -12.4518510486      -80.0525256835
atom        13.3784000000        9.0460100000        9.7315900000 H         0.0000000000         0.0000000000       -45.5661085432       95.7822599366       75.5521380590
atom        13.3492000000       10.8903000000        9.8646200000 H         0.0000000000         0.0000000000       -37.0679940193     -111.0323389530       53.4778793583
atom        11.3928000000        9.9727700000       10.1281000000 C         0.0000000000         0.0000000000        -3.7540139910      -28.8358608644       25.0481210624
atom        10.6972000000        8.7496200000       10.0997000000 C         0.0000000000         0.0000000000       -30.1346144192       30.0667594955      -14.6466584959
atom        10.6442000000       11.1749000000       10.1188000000 C         0.0000000000         0.0000000000        13.5219452147       17.5659342197      -16.5788769006
atom         8.5078600000       10.0538000000       10.1386000000 C         0.0000000000         0.0000000000        39.0038692745      -12.7265110439      -22.4028811844
atom         9.2352800000        8.8484800000       10.0902000000 C         0.0000000000         0.0000000000         5.0759015303       -8.5302521477       28.7649032053
atom         9.2750600000       11.2501000000       10.0383000000 C         0.0000000000         0.0000000000        -0.7045579739      -31.3595942064        5.8264845633
atom        12.9782000000        9.9037700000       10.3054000000 C         0.0000000000         0.0000000000       -50.3630850204       65.5696769868      -67.5424938503
atom        10.7331000000        6.3251100000        9.7177100000 O         0.0000000000         0.0000000000       167.8338238019      271.0138851761       76.4803228575
atom        11.0452000000       13.5447000000        9.3828500000 O         0.0000000000         0.0000000000        84.3872095951     -261.9627968565      185.8157405519
atom        12.7524000000        7.3435800000        9.8365300000 O         0.0000000000         0.0000000000      -325.0189261350       -0.8545777585       42.9588641748
atom        12.3031000000       12.7605000000       11.1035000000 O         0.0000000000         0.0000000000      -217.4887504817      -58.2811015530     -237.5249101595
atom         6.4125000000        8.9003400000       10.5269000000 O         0.0000000000         0.0000000000       119.4721537670      293.7657242611      -89.1108570559
atom         6.3145500000       11.1543000000        9.9936100000 O         0.0000000000         0.0000000000       149.1047530857     -292.0628048895       51.1485901540
atom        11.4324000000        7.3657500000        9.9715600000 N         0.0000000000         0.0000000000        47.4399086493      -96.2034512807     -109.4774821465
atom        11.4049000000       12.5757000000       10.1358000000 N         0.0000000000         0.0000000000        34.6321636217      137.3032520737       54.0220569710
atom         6.9132000000       10.0288000000       10.1963000000 N         0.0000000000         0.0000000000       -60.9029834648       -0.1142881012       32.0723211002
energy     -4325.4899079172
charge 0
end
begin
comment generated by PY
lattice        20.0000000000         0.0000000000         0.0000000000
lattice         0.0000000000        20.0000000000         0.0000000000
lattice         0.0000000000         0.0000000000        20.0000000000
atom         8.7956300000        7.7914500000       10.0728000000 H         0.0000000000         0.0000000000        54.2946592189      114.0578049775       -8.4135100421
atom         8.6615700000       12.0566000000       10.0635000000 H         0.0000000000         0.0000000000        61.2971671831      -78.7708456267       17.1588005544
atom        13.2286000000       11.0106000000        9.4491400000 H         0.0000000000         0.0000000000       -39.8699151358      -98.9759648204       42.5935152787
atom        13.4677000000        9.8354600000       10.6892000000 H         0.0000000000         0.0000000000       -72.5499372250       26.6370913678      -93.7822022248
atom        13.3604000000        9.4304900000        9.1344300000 H         0.0000000000         0.0000000000       -57.4328464631       35.0594999056       47.0508485744
atom        11.3396000000       10.0332000000        9.9118200000 C         0.0000000000         0.0000000000        47.4370172784       -9.4639482434       36.4051531631
atom        10.6991000000        8.8170200000       10.0205000000 C         0.0000000000         0.0000000000       -30.3369160637        3.2411562606      -29.4430794578
atom        10.6436000000       11.2342000000       10.0840000000 C         0.0000000000         0.0000000000       -26.8358109946        3.2498043601        3.6799576120
atom         8.5010800000        9.9673000000       10.0528000000 C         0.0000000000         0.0000000000        38.4823012811       -1.3278020397       21.2912939614
atom         9.2882800000        8.8077200000       10.0176000000 C         0.0000000000         0.0000000000        -4.1131414215      -14.4537533493       21.4619537721
atom         9.2532100000       11.1784000000       10.1348000000 C         0.0000000000         0.0000000000       -14.0621798205      -21.2615863743      -36.4706561349
atom        12.8851000000       10.0449000000        9.7793900000 C         0.0000000000         0.0000000000        21.9117949322       43.7857192252       10.2577546928
atom        10.7340000000        6.4303600000       10.3832000000 O         0.0000000000         0.0000000000       167.7730278626      257.1315504149      -93.8979195258
atom        10.9575000000       13.7617000000        9.9507200000 O         0.0000000000         0.0000000000        83.7156595330     -311.5495808879       73.1377972565
atom        12.7612000000        7.2872800000        9.9134800000 O         0.0000000000         0.0000000000      -325.4299729016       50.0509736444       22.3987578353
atom        12.5665000000       12.4501000000       10.8063000000 O         0.0000000000         0.0000000000      -294.5994823059       33.0680565674     -126.0922001762
atom         6.2454600000        8.8520500000        9.9229400000 O         0.0000000000         0.0000000000       188.9690162596      272.8975321155       54.4289013362
atom         6.3659800000       11.1315000000       10.2625000000 O         0.0000000000         0.0000000000       151.9413615484     -292.7264161958      -30.6097359200
atom        11.4422000000        7.4263500000       10.0378000000 N         0.0000000000         0.0000000000        49.2530438819     -125.8660646234       74.5052481936
atom        11.3767000000       12.5958000000       10.2659000000 N         0.0000000000         0.0000000000       115.7542137737       87.8036004736       32.3277124489
atom         6.9421400000        9.9605300000       10.1242000000 N         0.0000000000         0.0000000000      -115.5990904215       27.4118667272      -37.9887150767
energy     -4354.0004282379
charge 0
end
begin
comment generated by PY
lattice        20.0000000000         0.0000000000         0.0000000000
lattice         0.0000000000        20.0000000000         0.0000000000
lattice         0.0000000000         0.0000000000        20.0000000000
atom         8.8110200000        7.8105600000        9.9328500000 H         0.0000000000         0.0000000000        41.5982581721      109.0293618677       11.4905535865
atom         8.7628000000       12.1115000000       10.2543000000 H         0.0000000000         0.0000000000        46.4220425148      -78.4851671566        6.9543877429
atom        13.5894000000       10.5586000000        9.7893500000 H         0.0000000000         0.0000000000       -80.1815489613      -57.4937478019       72.6702860731
atom        13.0857000000       10.3619000000       11.4382000000 H         0.0000000000         0.0000000000        -0.2015333547      -27.0778082245      -76.9674118428
atom        13.2425000000        8.9127400000       10.5273000000 H         0.0000000000         0.0000000000       -26.5845285447      121.5840211801       -5.8150119868
atom        11.3701000000        9.9668000000       10.3450000000 C         0.0000000000         0.0000000000        37.6857586999       16.2869587022      -66.4168078492
atom        10.7030000000        8.7231500000       10.1312000000 C         0.0000000000         0.0000000000       -46.3936564521       24.7188399707       20.3263385251
atom        10.7124000000       11.2353000000       10.2046000000 C         0.0000000000         0.0000000000       -19.8033958027      -42.9824875068       45.8047820561
atom         8.5715300000       10.0109000000       10.1583000000 C         0.0000000000         0.0000000000        21.9589601368       12.3601306351       -3.2730590196
atom         9.2835000000        8.7940200000       10.0528000000 C         0.0000000000         0.0000000000        23.6574018910       -1.3797164370        7.5721389426
atom         9.2971000000       11.2174000000       10.2803000000 C         0.0000000000         0.0000000000        24.4710729603      -31.7514589127      -42.4010398271
atom        12.9580000000        9.9907900000       10.4915000000 C         0.0000000000         0.0000000000       -37.8446290002      -39.0456757432       13.0604173409
atom        10.7312000000        6.3012200000        9.6489900000 O         0.0000000000         0.0000000000       142.1563442014      267.6138752383      108.5874018551
atom        10.9768000000       13.6043000000       10.8650000000 O         0.0000000000         0.0000000000       136.1400688825     -254.7320136068     -158.6060025679
atom        12.6535000000        7.2130300000       10.3170000000 O         0.0000000000         0.0000000000      -312.7341943994       24.0567521713      -54.6206078125