################################################################################
# Symmetry function scaling data.
################################################################################
# Col  Name     Description
################################################################################
# 1    e_index  Element index.
# 2    sf_index Symmetry function index.
# 3    sf_min   Symmetry function minimum.
# 4    sf_max   Symmetry function maximum.
# 5    sf_mean  Symmetry function mean.
# 6    sf_sigma Symmetry function sigma.
#########################################################################################################################
#        1          2                        3                        4                        5                        6
#  e_index   sf_index                   sf_min                   sf_max                  sf_mean                 sf_sigma
#########################################################################################################################
         1          1   0.0000000000000000E+00   1.9048451649873559E+01   1.0274624721356139E+01   1.6155508541062185E+00
         1          2   0.0000000000000000E+00   1.9125489159225840E+01   1.0329248784914034E+01   1.6241710702688854E+00
         1          3   0.0000000000000000E+00   1.8166535833208261E+01   9.7046205183029777E+00   1.5303848365239281E+00
         1          4   0.0000000000000000E+00   1.8905463646742504E+01   1.0226214631210066E+01   1.6125865126917354E+00
         1          5   0.0000000000000000E+00   1.6588692774402649E+01   8.5895290566123315E+00   1.3662427541889861E+00
         1          6   0.0000000000000000E+00   1.8439568902837042E+01   1.0006616984780923E+01   1.5889159353681475E+00
         1          7   0.0000000000000000E+00   1.4667800303588800E+01   7.2366613716080517E+00   1.1726106185166980E+00
         1          8   0.0000000000000000E+00   1.7784024546596303E+01   9.6997943328615257E+00   1.5580171151948854E+00
         1          9   0.0000000000000000E+00   1.2611082930217744E+01   5.8749914912320440E+00   9.8601661612543356E-01
         1         10   0.0000000000000000E+00   1.6983363337840643E+01   9.3285572780836770E+00   1.5236199138435427E+00
         1         11   0.0000000000000000E+00   1.7526717549724872E+01   9.0415356073334454E+00   1.4910646302786545E+00
         1         12   0.0000000000000000E+00   1.2693192905694406E+01   7.0817986046077070E+00   1.2016648309227853E+00
         1         13   0.0000000000000000E+00   1.6422686358687940E+01   8.0724941374768289E+00   1.4024276762889305E+00
         1         14   0.0000000000000000E+00   9.7112987762785643E+00   5.4256016960257787E+00   9.7511780573577400E-01
         1         15   0.0000000000000000E+00   1.4825418598337473E+01   6.7119649492928719E+00   1.2985686143201527E+00
         1         16   0.0000000000000000E+00   7.1742574143742024E+00   3.7767379421318776E+00   7.1497892580481726E-01
         1         17   0.0000000000000000E+00   1.2059108245851700E+01   4.6109050808854164E+00   1.1824008345253800E+00
         1         18   0.0000000000000000E+00   4.3057886156360237E+00   2.1025976796538117E+00   4.3371309876589703E-01
         1         19   0.0000000000000000E+00   3.8963891248179343E+00   5.1837616714806134E-01   3.2053267581693740E-01
         1         20   0.0000000000000000E+00   1.1956249113428660E+01   2.8054270191419075E+00   1.1165101766519430E+00
         1         21   0.0000000000000000E+00   2.9834704213454972E+00   3.8407609471028026E-01   2.6318356789550268E-01
         1         22   0.0000000000000000E+00   9.7346666162063826E+00   2.4462494869172029E+00   9.8874294980873412E-01
         1         23   0.0000000000000000E+00   3.5334850102994690E+00   4.5039950705451676E-01   2.8758115067495221E-01
         1         24   0.0000000000000000E+00   1.0763799385773405E+01   2.4433594796796845E+00   9.8336383785611470E-01
         1         25   0.0000000000000000E+00   2.7122564783970096E+00   3.3480448949563218E-01   2.3693178982142132E-01
         1         26   0.0000000000000000E+00   8.7576524104085713E+00   2.1334947195402196E+00   8.7060424548923754E-01
         1         27   0.0000000000000000E+00   9.0144578869260581E+00   1.1555527756391297E+00   5.5943713431960351E-01
         1         28   0.0000000000000000E+00   1.6496597006343698E+01   3.0398797660325445E+00   1.2039977901257957E+00
         1         29   0.0000000000000000E+00   4.7657304607363820E+00   5.8739096539037994E-01   3.4216697400563856E-01
         1         30   0.0000000000000000E+00   1.2247869580154028E+01   2.4717179557837965E+00   9.9392673939619702E-01
         1         31   0.0000000000000000E+00   8.1123934629614141E+00   9.8760320950126279E-01   4.9470869560604580E-01
         1         32   0.0000000000000000E+00   1.4767369317337684E+01   2.6187888333718914E+00   1.0575776998179944E+00
         1         33   0.0000000000000000E+00   4.3048982950504140E+00   5.0315311133592411E-01   3.0358547297496258E-01
         1         34   0.0000000000000000E+00   1.0959874149426689E+01   2.1343387352065526E+00   8.7190254862868144E-01
         1         35   0.0000000000000000E+00   7.3187969148195666E+00   8.4694661090810375E-01   4.3887671252109317E-01
         1         36   0.0000000000000000E+00   1.3251218986936610E+01   2.2655328236621086E+00   9.3314245234904547E-01
         1         37   0.0000000000000000E+00   2.6127744820025898E+00   2.8651660915732358E-01   2.0309504628700004E-01
         1         38   0.0000000000000000E+00   7.6958534105997112E+00   1.5818311892775336E+00   6.6239079101223575E-01
         1         39   0.0000000000000000E+00   5.4469978465357780E+00   5.4449112360254970E-01   3.1180367607050108E-01
         1         40   0.0000000000000000E+00   9.7030396614266188E+00   1.5019987439413907E+00   6.5693833514892752E-01
         1         41   0.0000000000000000E+00   2.9334851469382648E+00   2.7842973075776434E-01   1.9274525420259250E-01
         1         42   0.0000000000000000E+00   7.1895269618291033E+00   1.2359373510966054E+00   5.3922732828712705E-01
         2          1   3.1148653604192917E-03   2.2840426275781159E+01   1.0545606242490724E+01   2.6030948657126034E+00
         2          2   3.1668769985453878E-03   2.2966528015492703E+01   1.0595494400805718E+01   2.6174638483304995E+00
         2          3   2.6454932406605441E-03   2.1601547304491334E+01   9.9927157307156182E+00   2.4645084979656220E+00
         2          4   3.1219491312728361E-03   2.2812903053853844E+01   1.0467409609209612E+01   2.6024614216005841E+00
         2          5   1.8402575383589291E-03   1.9199490396118968E+01   8.9142286969545541E+00   2.1922502617618962E+00
         2          6   3.0243782353585520E-03   2.2478209560296790E+01   1.0194134929334334E+01   2.5713394313197449E+00
         2          7   1.0676687447398604E-03   1.6484362793955924E+01   7.6108329088655662E+00   1.8604082681668308E+00
         2          8   2.8837096214963773E-03   2.1992954532122749E+01   9.8117963292386516E+00   2.5293602340651713E+00
         2          9   5.1663095903311097E-04   1.3717371707672033E+01   6.3025053623954044E+00   1.5268031349647391E+00
         2         10   2.7062760222269244E-03   2.1375831381166439E+01   9.3487704514283543E+00   2.4798579666103189E+00
         2         11   1.3756048541569835E-03   2.1240894908108437E+01   9.2457222684478193E+00   2.4300719258782078E+00
         2         12   3.1108423086834915E-03   1.6047186762343557E+01   6.9169194689799394E+00   1.9127806835028807E+00
         2         13   5.9657729098887811E-04   2.0033775160643341E+01   8.2292109768444046E+00   2.2993809258685749E+00
         2         14   3.0509515584108741E-03   1.1882141064113197E+01   5.1984218724425029E+00   1.4759338018260966E+00
         2         15   1.1220514047317518E-04   1.8314936815893542E+01   6.7945945029402468E+00   2.1326922179494860E+00
         2         16   1.6679462018012097E-04   7.5825484658088529E+00   3.6728163161875385E+00   9.9082057407123081E-01
         2         17   4.0186684065819617E-07   1.5730680527306683E+01   4.4880250300512303E+00   1.8953231301804243E+00
         2         18   1.4340728104629803E-09   4.0316052720392115E+00   2.1864646822752385E+00   5.6121318211335325E-01
         2         19   0.0000000000000000E+00   5.1426649088028054E+00   1.0253976275936705E+00   5.2917235100274773E-01
         2         20   0.0000000000000000E+00   1.7021184848405326E+01   2.8288270056396998E+00   2.5531183300442284E+00
         2         21   0.0000000000000000E+00   4.2183550229346238E+00   8.3881071365790183E-01   4.4496490223581242E-01
         2         22   0.0000000000000000E+00   1.4653452660345948E+01   2.4353905783477496E+00   2.1974645887331858E+00
         2         23   0.0000000000000000E+00   4.7077995800950374E+00   9.2517501602636787E-01   4.8735770117078558E-01
         2         24   0.0000000000000000E+00   1.4859772232483964E+01   2.4508812798884190E+00   2.2384733151514471E+00
         2         25   0.0000000000000000E+00   3.8674106737761944E+00   7.6066332641072343E-01   4.1329027726215023E-01
         2         26   0.0000000000000000E+00   1.2799028746021571E+01   2.1113340917927124E+00   1.9269875771777898E+00
         2         27   0.0000000000000000E+00   1.0144737964644081E+01   1.7904670808369418E+00   1.1588318555484007E+00
         2         28   0.0000000000000000E+00   1.8643879088558510E+01   3.2061789745262423E+00   2.9072409440834805E+00
         2         29   0.0000000000000000E+00   5.7634206736668743E+00   1.0999737710667592E+00   6.1818305425991704E-01
         2         30   0.0000000000000000E+00   1.5172763657006762E+01   2.5156856647560573E+00   2.3162719395993290E+00
         2         31   0.0000000000000000E+00   9.1152325783560926E+00   1.5739447400695910E+00   1.0346784191904068E+00
         2         32   0.0000000000000000E+00   1.6043614417603010E+01   2.7550580745633617E+00   2.5330075224707200E+00
         2         33   0.0000000000000000E+00   5.3061650208304192E+00   9.7900445013846449E-01   5.6263464487265147E-01
         2         34   0.0000000000000000E+00   1.3107545762611363E+01   2.1601177846322357E+00   2.0142687077046135E+00
         2         35   0.0000000000000000E+00   8.2042551765969538E+00   1.3886328315688385E+00   9.2923834424644924E-01
         2         36   0.0000000000000000E+00   1.3855922798871923E+01   2.3760271490982259E+00   2.2143506946283327E+00
         2         37   0.0000000000000000E+00   3.6085709353029229E+00   6.6766174803096345E-01   3.8074327601308605E-01
         2         38   0.0000000000000000E+00   9.6061335879550516E+00   1.5531552504402919E+00   1.4702971314963875E+00
         2         39   0.0000000000000000E+00   6.0665489545987006E+00   9.7255327689535642E-01   6.9493786072902164E-01
         2         40   0.0000000000000000E+00   9.6380474634226712E+00   1.5552313893617371E+00   1.5080519025566919E+00
         2         41   0.0000000000000000E+00   4.1430918333100761E+00   6.3213274778376838E-01   4.0507799313460668E-01
         2         42   0.0000000000000000E+00   7.4838254374518405E+00   1.2148108602501493E+00   1.1864932060935249E+00
         3          1   0.0000000000000000E+00   3.1496207249563827E+01   1.0614462633575707E+01   4.7737499755117145E+00
         3          2   0.0000000000000000E+00   3.1653892179617742E+01   1.0673772117201267E+01   4.7920151376703242E+00
         3          3   0.0000000000000000E+00   2.9875762511963085E+01   1.0008692890877974E+01   4.5713178161498176E+00
         3          4   0.0000000000000000E+00   3.1389082010078290E+01   1.0574903054396609E+01   4.7472130475919032E+00
         3          5   0.0000000000000000E+00   2.6659966777490887E+01   8.8257233179861370E+00   4.1631388520078296E+00
         3          6   0.0000000000000000E+00   3.0815138043745328E+01   1.0363152682088305E+01   4.6498401421750639E+00
         3          7   0.0000000000000000E+00   2.2695872632375501E+01   7.3952903226897968E+00   3.6410767255990404E+00
         3          8   0.0000000000000000E+00   2.9990266177680315E+01   1.0064908180481352E+01   4.5092531476750155E+00
         3          9   0.0000000000000000E+00   1.8602837243022460E+01   5.9627857264031503E+00   3.0753194608113836E+00
         3         10   0.0000000000000000E+00   2.8953642949033341E+01   9.7002710890379102E+00   4.3315267935343398E+00
         3         11   0.0000000000000000E+00   2.8893787590736896E+01   9.3167942378349640E+00   4.5803373062989703E+00
         3         12   0.0000000000000000E+00   2.1371866633379582E+01   7.4436164788152546E+00   2.9877446008573405E+00
         3         13   0.0000000000000000E+00   2.6800906776365238E+01   8.2934502937377967E+00   4.4230245493124123E+00
         3         14   0.0000000000000000E+00   1.5664708803300577E+01   5.7688679445799096E+00   2.0213254183122786E+00
         3         15   0.0000000000000000E+00   2.3998859422624864E+01   6.8530169102885621E+00   4.2049368829494984E+00
         3         16   0.0000000000000000E+00   1.0031539390228835E+01   4.1043151935175395E+00   1.1753513062139775E+00
         3         17   0.0000000000000000E+00   1.9629211665361254E+01   4.6085431215342849E+00   3.8243387764067380E+00
         3         18   0.0000000000000000E+00   5.4872199980187952E+00   2.3390928657895111E+00   5.9856700612769487E-01
         3         19   0.0000000000000000E+00   5.0901664482776638E+00   6.5397796346961290E-01   9.0874107743548538E-01
         3         20   0.0000000000000000E+00   2.9376111674341260E+01   3.5862787219934589E+00   4.9698079795628995E+00
         3         21   0.0000000000000000E+00   3.5330237909401370E+00   4.5353370870404280E-01   6.3282614768865586E-01
         3         22   0.0000000000000000E+00   2.4656693457132008E+01   3.0722603131661508E+00   4.1749119769756131E+00
         3         23   0.0000000000000000E+00   4.4193061144746588E+00   5.6906080871535114E-01   7.9407461874665808E-01
         3         24   0.0000000000000000E+00   2.5709590438675455E+01   3.1167639062860442E+00   4.3826418746364268E+00
         3         25   0.0000000000000000E+00   3.0670598590425926E+00   3.9445732676718498E-01   5.5205600410952960E-01
         3         26   0.0000000000000000E+00   2.1565248157171435E+01   2.6707816146003069E+00   3.6795010159846009E+00
         3         27   0.0000000000000000E+00   1.4196198470344513E+01   1.6540455019015696E+00   2.4549268152183101E+00
         3         28   0.0000000000000000E+00   3.5006981559669796E+01   4.0737119908088513E+00   6.0060727014952606E+00
         3         29   0.0000000000000000E+00   6.4603509568908786E+00   8.0003305466437058E-01   1.1411741979322914E+00
         3         30   0.0000000000000000E+00   2.7271134046216162E+01   3.2196995435716524E+00   4.6866711289120468E+00
         3         31   0.0000000000000000E+00   1.2306732266901752E+01   1.4257161515674202E+00   2.1396395034598905E+00
         3         32   0.0000000000000000E+00   3.0436803505554913E+01   3.5105765775437732E+00   5.2549139327801715E+00
         3         33   0.0000000000000000E+00   5.5756225638883237E+00   6.8988775508339495E-01   9.9079582948435529E-01
         3         34   0.0000000000000000E+00   2.3713911108771963E+01   2.7747481810597452E+00   4.1003564092733358E+00
         3         35   0.0000000000000000E+00   1.0699666893915300E+01   1.2331699768919764E+00   1.8699772430259476E+00
         3         36   0.0000000000000000E+00   2.6534052752196366E+01   3.0361165665457062E+00   4.6098440172720130E+00
         3         37   0.0000000000000000E+00   2.8111937666447893E+00   3.6471091271181671E-01   5.1577965172872253E-01
         3         38   0.0000000000000000E+00   1.6834992217893202E+01   1.9955447564820776E+00   2.9302762206372037E+00
         3         39   0.0000000000000000E+00   7.1439672685252971E+00   8.1337589909567487E-01   1.2674696161903765E+00
         3         40   0.0000000000000000E+00   1.7836276370591083E+01   2.0028772637587346E+00   3.1572243051818245E+00
         3         41   0.0000000000000000E+00   3.1817379066011373E+00   3.9340750528537127E-01   5.7891181163812078E-01
         3         42   0.0000000000000000E+00   1.3890208997280785E+01   1.5829088699484308E+00   2.4630173290437765E+00
         4          1   0.0000000000000000E+00   2.7232649041713756E+01   9.2011006404700630E+00   2.0620976035511989E+00
         4          2   0.0000000000000000E+00   2.7365811670892892E+01   9.2576007563450950E+00   2.0705814952904897E+00
         4          3   0.0000000000000000E+00   2.5847126415733982E+01   8.6450962377543110E+00   1.9686911452142948E+00
         4          4   0.0000000000000000E+00   2.7124631720993907E+01   9.1849480563542052E+00   2.0491994729896081E+00
         4          5   0.0000000000000000E+00   2.3097937923164487E+01   7.5607787814140091E+00   1.7886781261875491E+00
         4          6   0.0000000000000000E+00   2.6603020535495173E+01   9.0293702728462186E+00   2.0046334526990397E+00
         4          7   0.0000000000000000E+00   1.9681759696694314E+01   6.2533646154140357E+00   1.5751260576807051E+00
         4          8   0.0000000000000000E+00   2.5856158658021023E+01   8.8102542549776253E+00   1.9446694653394514E+00
         4          9   0.0000000000000000E+00   1.6130832341117426E+01   4.9509244862620116E+00   1.3642569851016195E+00
         4         10   0.0000000000000000E+00   2.4922562279396132E+01   8.5422545713818874E+00   1.8757123034476719E+00
         4         11   0.0000000000000000E+00   2.4946226797937577E+01   8.0318955766108449E+00   1.9227123855298049E+00
         4         12   0.0000000000000000E+00   1.8255847101737210E+01   6.7163378877594377E+00   1.4142257173270341E+00
         4         13   0.0000000000000000E+00   2.3075987448910908E+01   7.1118642486254515E+00   1.8210205194186526E+00
         4         14   0.0000000000000000E+00   1.3286062315877238E+01   5.3168365782850957E+00   1.1272921641063400E+00
         4         15   0.0000000000000000E+00   2.0363193413558349E+01   5.8186800097398592E+00   1.6940602740878821E+00
         4         16   0.0000000000000000E+00   8.8895341867108009E+00   3.8122651046790104E+00   8.3275944430963467E-01
         4         17   0.0000000000000000E+00   1.6616099753223363E+01   3.8001575767690046E+00   1.5189524176047373E+00
         4         18   0.0000000000000000E+00   4.9976740713924803E+00   2.1176563014838892E+00   4.9160784958484366E-01
         4         19   0.0000000000000000E+00   3.9445050969876818E+00   2.6992680361261728E-01   2.9087899577987447E-01
         4         20   0.0000000000000000E+00   2.1851207714547055E+01   2.6317880527814332E+00   1.8710475102966375E+00
         4         21   0.0000000000000000E+00   2.7011009528179923E+00   1.8272438167064944E-01   2.1359276617960998E-01
         4         22   0.0000000000000000E+00   1.8383487992350510E+01   2.3343919593347868E+00   1.6094106071474017E+00
         4         23   0.0000000000000000E+00   3.4319439155089211E+00   2.3238094901774006E-01   2.5837978369171466E-01
         4         24   0.0000000000000000E+00   1.9154718242326869E+01   2.3004394105197230E+00   1.6554992878336754E+00
         4         25   0.0000000000000000E+00   2.3469366169942814E+00   1.5756800665278539E-01   1.8985132049888320E-01
         4         26   0.0000000000000000E+00   1.6112642151768959E+01   2.0450494032479649E+00   1.4241294145019994E+00
         4         27   0.0000000000000000E+00   1.0621492677363676E+01   7.7379480148371538E-01   7.5740812633429888E-01
         4         28   0.0000000000000000E+00   2.5975117572366766E+01   2.7199095998930534E+00   2.1350314554277721E+00
         4         29   0.0000000000000000E+00   4.9383010577162709E+00   3.3851162238093435E-01   3.5608484245495131E-01
         4         30   0.0000000000000000E+00   2.0291925952719328E+01   2.2846264207902722E+00   1.7273770159900455E+00
         4         31   0.0000000000000000E+00   9.1991526878509529E+00   6.5854588801450209E-01   6.6730776379858092E-01
         4         32   0.0000000000000000E+00   2.2575473443821444E+01   2.3510193696723545E+00   1.8814831093287268E+00
         4         33   0.0000000000000000E+00   4.2639191041468525E+00   2.8828301913669990E-01   3.1383119357908346E-01
         4         34   0.0000000000000000E+00   1.7640239860117369E+01   1.9807565007945513E+00   1.5226283737939907E+00
         4         35   0.0000000000000000E+00   7.9909338497424747E+00   5.6309008333549815E-01   5.9009859765213557E-01
         4         36   0.0000000000000000E+00   1.9680310607149561E+01   2.0417719316714953E+00   1.6658925581332982E+00
         4         37   0.0000000000000000E+00   2.1939836206014536E+00   1.4456220257866728E-01   1.7734617337548036E-01
         4         38   0.0000000000000000E+00   1.2580488011041119E+01   1.5107359099072766E+00   1.1348877352847841E+00
         4         39   0.0000000000000000E+00   5.3238223871518624E+00   3.6151699812580679E-01   4.1646433404140198E-01
         4         40   0.0000000000000000E+00   1.3258449775793673E+01   1.3728836944640992E+00   1.1880376700554363E+00
         4         41   0.0000000000000000E+00   2.4341850202908080E+00   1.5811053741708250E-01   1.9520843656813450E-01
         4         42   0.0000000000000000E+00   1.0368812408932598E+01   1.1694772337553740E+00   9.6420098859621994E-01
