begin
comment generated by PY
lattice         3.3847543440        -0.0000000100         0.0000000160
lattice        -0.0000000100         3.3847543110        -0.0000000560
lattice         0.0000000160        -0.0000000560         3.3847543580
atom        -0.0000000000        3.3847500000        1.6923800000 C         0.0000000000         0.0000000000        -0.0016779481       -0.0018386329        0.0004405214
atom         3.3847500000        1.6923800000        3.3847500000 C         0.0000000000         0.0000000000        -0.0018605456        0.0000009010       -0.0015677163
atom         1.6923800000        1.6923800000        1.6923800000 C         0.0000000000         0.0000000000         0.0007497630       -0.0000295315        0.0003666398
atom         1.6923800000        3.3847500000        3.3847500000 C         0.0000000000         0.0000000000         0.0001518002       -0.0020619184       -0.0019089445
atom         2.5385700000        0.8461900000        0.8461900000 C         0.0000000000         0.0000000000         0.0014751104        0.0010875694       -0.0000116588
atom         0.8461900000        0.8461900000        2.5385700000 C         0.0000000000         0.0000000000         0.0000943789        0.0001025210        0.0008566712
atom         0.8461900000        2.5385700000        0.8461900000 C         0.0000000000         0.0000000000        -0.0004784132        0.0018505416        0.0002705217
atom         2.5385700000        2.5385700000        2.5385700000 C         0.0000000000         0.0000000000         0.0015689221        0.0008885537        0.0015308940
energy     -2542.0412279843
charge 0
end
begin
comment generated by PY
lattice         3.3883172430        -0.0000000100         0.0000000160
lattice        -0.0000000100         3.3883172110        -0.0000000560
lattice         0.0000000160        -0.0000000560         3.3883172580
atom        -0.0000000000        3.3883200000        1.6941600000 C         0.0000000000         0.0000000000        -0.0007530823        0.0003209538       -0.0007070287
atom         3.3883200000        1.6941600000        3.3883200000 C         0.0000000000         0.0000000000         0.0003161054       -0.0013772676        0.0003382304
atom         1.6941600000        1.6941600000        1.6941600000 C         0.0000000000         0.0000000000         0.0002765793       -0.0005313213        0.0001876727
atom         1.6941600000        3.3883200000        3.3883200000 C         0.0000000000         0.0000000000         0.0000013231        0.0004204880        0.0005504373
atom         2.5412400000        0.8470800000        0.8470800000 C         0.0000000000         0.0000000000         0.0006639809       -0.0006960729       -0.0004362759
atom         0.8470800000        0.8470800000        2.5412400000 C         0.0000000000         0.0000000000         0.0000470877        0.0002774783        0.0003599748
atom         0.8470800000        2.5412400000        0.8470800000 C         0.0000000000         0.0000000000        -0.0002488999        0.0009402599       -0.0008213582
atom         2.5412400000        2.5412400000        2.5412400000 C         0.0000000000         0.0000000000        -0.0002800332        0.0006685409        0.0005052874
energy     -2539.2141841007
charge 0
end
begin
comment generated by PY
lattice         3.3918801430        -0.0000000100         0.0000000160
lattice        -0.0000000100         3.3918801100        -0.0000000560
lattice         0.0000000160        -0.0000000560         3.3918801570
atom        -0.0000000000        3.3918800000        1.6959400000 C         0.0000000000         0.0000000000        -0.0003019944        0.0003048526       -0.0001951199
atom         3.3918800000        1.6959400000        3.3918800000 C         0.0000000000         0.0000000000        -0.0005501591       -0.0008884071        0.0006911185
atom         1.6959400000        1.6959400000        1.6959400000 C         0.0000000000         0.0000000000        -0.0003229937        0.0007877460        0.0006534750
atom         1.6959400000        3.3918800000        3.3918800000 C         0.0000000000         0.0000000000         0.0000012328       -0.0000107282       -0.0003880819
atom         2.5439100000        0.8479700000        0.8479700000 C         0.0000000000         0.0000000000         0.0010457545        0.0006957430       -0.0000893880
atom         0.8479700000        0.8479700000        2.5439100000 C         0.0000000000         0.0000000000         0.0002188639        0.0003245838       -0.0003284711
atom         0.8479700000        2.5439100000        0.8479700000 C         0.0000000000         0.0000000000         0.0004994616       -0.0009171173        0.0001322596
atom         2.5439100000        2.5439100000        2.5439100000 C         0.0000000000         0.0000000000        -0.0006132262       -0.0002736123       -0.0004527317
energy     -2536.3770828447
charge 0
end
begin
comment generated by PY
lattice         3.3954430420        -0.0000000100         0.0000000160
lattice        -0.0000000100         3.3954430090        -0.0000000560
lattice         0.0000000160        -0.0000000560         3.3954430560
atom        -0.0000000000        3.3954400000        1.6977200000 C         0.0000000000         0.0000000000         0.0003308484       -0.0007224396       -0.0004460112
atom         3.3954400000        1.6977200000        3.3954400000 C         0.0000000000         0.0000000000         0.0000852420       -0.0000554319        0.0008860558
atom         1.6977200000        1.6977200000        1.6977200000 C         0.0000000000         0.0000000000        -0.0001385080        0.0003524139        0.0002642397
atom         1.6977200000        3.3954400000        3.3954400000 C         0.0000000000         0.0000000000        -0.0000910949       -0.0010380462       -0.0004698875
atom         2.5465800000        0.8488600000        0.8488600000 C         0.0000000000         0.0000000000        -0.0004838648        0.0010208415        0.0010636079
atom         0.8488600000        0.8488600000        2.5465800000 C         0.0000000000         0.0000000000         0.0008722777        0.0003706761       -0.0012663281
atom         0.8488600000        2.5465800000        0.8488600000 C         0.0000000000         0.0000000000        -0.0005535357        0.0001535309        0.0005956761
atom         2.5465800000        2.5465800000        2.5465800000 C         0.0000000000         0.0000000000        -0.0000213634       -0.0000815441       -0.0006042912
energy     -2533.5219543844
charge 0
end
begin
comment generated by PY
lattice         3.3990059410        -0.0000000100         0.0000000160
lattice        -0.0000000100         3.3990059090        -0.0000000560
lattice         0.0000000160        -0.0000000560         3.3990059560
atom        -0.0000000000        3.3990100000        1.6995000000 C         0.0000000000         0.0000000000         0.0012654607        0.0016994512       -0.0003980174
atom         3.3990100000        1.6995000000        3.3990100000 C         0.0000000000         0.0000000000         0.0020197600       -0.0013449099        0.0016706707
atom         1.6995000000        1.6995000000        1.6995000000 C         0.0000000000         0.0000000000        -0.0010605017       -0.0005911788        0.0000816201
atom         1.6995000000        3.3990100000        3.3990100000 C         0.0000000000         0.0000000000        -0.0011745530        0.0024215382        0.0019058862
atom         2.5492500000        0.8497500000        0.8497500000 C         0.0000000000         0.0000000000        -0.0006125985       -0.0005676115        0.0002154507
atom         0.8497500000        0.8497500000        2.5492500000 C         0.0000000000         0.0000000000         0.0001310321        0.0000298603       -0.0006949183
atom         0.8497500000        2.5492500000        0.8497500000 C         0.0000000000         0.0000000000         0.0001350358       -0.0009378308       -0.0005316059
atom         2.5492500000        2.5492500000        2.5492500000 C         0.0000000000         0.0000000000        -0.0006805707       -0.0007323844       -0.0022490821
energy     -2530.6541950336
charge 0
end
begin
comment generated by PY
lattice         3.4025688400        -0.0000000100         0.0000000160
lattice        -0.0000000100         3.4025688080        -0.0000000560
lattice         0.0000000160        -0.0000000560         3.4025688550
atom        -0.0000000000        3.4025700000        1.7012800000 C         0.0000000000         0.0000000000         0.0011858693        0.0002150956       -0.0012603840
atom         3.4025700000        1.7012800000        3.4025700000 C         0.0000000000         0.0000000000         0.0009065010       -0.0015380505        0.0011332735
atom         1.7012800000        1.7012800000        1.7012800000 C         0.0000000000         0.0000000000        -0.0015325616       -0.0017988466       -0.0023257092
atom         1.7012800000        3.4025700000        3.4025700000 C         0.0000000000         0.0000000000        -0.0024078030        0.0006604310        0.0005382943
atom         2.5519300000        0.8506400000        0.8506400000 C         0.0000000000         0.0000000000         0.0003759221        0.0001748620       -0.0009123753
atom         0.8506400000        0.8506400000        2.5519300000 C         0.0000000000         0.0000000000        -0.0001809071       -0.0008889618        0.0017625927
atom         0.8506400000        2.5519300000        0.8506400000 C         0.0000000000         0.0000000000        -0.0000154008        0.0010588923       -0.0005055264
atom         2.5519300000        2.5519300000        2.5519300000 C         0.0000000000         0.0000000000         0.0016453116        0.0020704599        0.0015928849
energy     -2527.7763776977
charge 0
end
begin
comment generated by PY
lattice         3.4061317400        -0.0000000100         0.0000000160
lattice        -0.0000000100         3.4061317070        -0.0000000560
lattice         0.0000000160        -0.0000000560         3.4061317540
atom        -0.0000000000        3.4061300000        1.7030700000 C         0.0000000000         0.0000000000         0.0005569182       -0.0000598661        0.0015685705
atom         3.4061300000        1.7030700000        3.4061300000 C         0.0000000000         0.0000000000        -0.0000358177        0.0021441542       -0.0003408247
atom         1.7030700000        1.7030700000        1.7030700000 C         0.0000000000         0.0000000000         0.0006039997        0.0011915118        0.0016331722
atom         1.7030700000        3.4061300000        3.4061300000 C         0.0000000000         0.0000000000         0.0005819686       -0.0004447394       -0.0010050026
atom         2.5546000000        0.8515300000        0.8515300000 C         0.0000000000         0.0000000000         0.0002623785       -0.0007608540       -0.0004605175
atom         0.8515300000        0.8515300000        2.5546000000 C         0.0000000000         0.0000000000        -0.0009455518       -0.0019129721       -0.0008011396
atom         0.8515300000        2.5546000000        0.8515300000 C         0.0000000000         0.0000000000        -0.0014256727       -0.0004019206       -0.0013951593
atom         2.5546000000        2.5546000000        2.5546000000 C         0.0000000000         0.0000000000         0.0003787206        0.0002677576        0.0008008979
energy     -2524.8839487559
charge 0
end
begin
comment generated by PY
lattice         3.4096946390        -0.0000000100         0.0000000160
lattice        -0.0000000100         3.4096946060        -0.0000000560
lattice         0.0000000160        -0.0000000560         3.4096946540
atom        -0.0000000000        3.4096900000        1.7048500000 C         0.0000000000         0.0000000000         0.0004486837       -0.0013069338        0.0019765371
atom         3.4096900000        1.7048500000        3.4096900000 C         0.0000000000         0.0000000000        -0.0017664870        0.0015605373       -0.0012189216
atom         1.7048500000        1.7048500000        1.7048500000 C         0.0000000000         0.0000000000         0.0008056747        0.0023605164        0.0014877156
atom         1.7048500000        3.4096900000        3.4096900000 C         0.0000000000         0.0000000000         0.0017520866       -0.0011845211       -0.0019061781
atom         2.5572700000        0.8524200000        0.8524200000 C         0.0000000000         0.0000000000         0.0008572341        0.0003869623       -0.0013793416
atom         0.8524200000        0.8524200000        2.5572700000 C         0.0000000000         0.0000000000        -0.0011915344       -0.0012175778       -0.0011328843
atom         0.8524200000        2.5572700000        0.8524200000 C         0.0000000000         0.0000000000        -0.0015793332       -0.0003274043        0.0005136221
atom         2.5572700000        2.5572700000        2.5572700000 C         0.0000000000         0.0000000000         0.0006967447       -0.0002715840        0.0016364043
energy     -2521.9810226486
charge 0
end
begin
comment generated by PY
lattice         3.4132575380        -0.0000000100         0.0000000160
lattice        -0.0000000100         3.4132575060        -0.0000000560
lattice         0.0000000160        -0.0000000560         3.4132575530
atom        -0.0000000000        3.4132600000        1.7066300000 C         0.0000000000         0.0000000000         0.0010062792        0.0023007730        0.0003785645
atom         3.4132600000        1.7066300000        3.4132600000 C         0.0000000000         0.0000000000         0.0021874108        0.0000548268        0.0019506848
atom         1.7066300000        1.7066300000        1.7066300000 C         0.0000000000         0.0000000000        -0.0000870042        0.0009009321        0.0002817723
atom         1.7066300000        3.4132600000        3.4132600000 C         0.0000000000         0.0000000000         0.0002136524        0.0009473207        0.0014709533
atom         2.5599400000        0.8533100000        0.8533100000 C         0.0000000000         0.0000000000         0.0007831847       -0.0028641196       -0.0007533029
atom         0.8533100000        0.8533100000        2.5599400000 C         0.0000000000         0.0000000000        -0.0021346119       -0.0012833355       -0.0008139505
atom         0.8533100000        2.5599400000        0.8533100000 C         0.0000000000         0.0000000000        -0.0009311829       -0.0007263501       -0.0015614189
atom         2.5599400000        2.5599400000        2.5599400000 C         0.0000000000         0.0000000000        -0.0010146706        0.0006930171       -0.0009994167
energy     -2519.0632605112
charge 0
end
begin
comment generated by PY
lattice         3.4168204380        -0.0000000100         0.0000000160
lattice        -0.0000000100         3.4168204050        -0.0000000560
lattice         0.0000000160        -0.0000000560         3.4168204520
atom        -0.0000000000        3.4168200000        1.7084100000 C         0.0000000000         0.0000000000        -0.0004280135       -0.0003629341       -0.0010607607
atom         3.4168200000        1.7084100000        3.4168200000 C         0.0000000000         0.0000000000        -0.0007064229       -0.0014767406       -0.0007822040
atom         1.7084100000        1.7084100000        1.7084100000 C         0.0000000000         0.0000000000        -0.0009480995       -0.0009765025       -0.0003273522
atom         1.7084100000        3.4168200000        3.4168200000 C         0.0000000000         0.0000000000        -0.0013163038       -0.0011860238       -0.0006854318
atom         2.5626200000        0.8542100000        0.8542100000 C         0.0000000000         0.0000000000         0.0006747425        0.0012819549        0.0006125652
atom         0.8542100000        0.8542100000        2.5626200000 C         0.0000000000         0.0000000000         0.0007569240        0.0013277912        0.0012184947
atom         0.8542100000        2.5626200000        0.8542100000 C         0.0000000000         0.0000000000         0.0013608538        0.0011345213        0.0004630452
atom         2.5626200000        2.5626200000        2.5626200000 C         0.0000000000         0.0000000000         0.0006063243        0.0002579367        0.0005616456
energy     -2516.1353403214
charge 0
end
begin
comment generated by PY
lattice         3.4203833370        -0.0000000100         0.0000000160
lattice        -0.0000000100         3.4203833040        -0.0000000560
lattice         0.0000000160        -0.0000000560         3.4203833520
atom        -0.0000000000        3.4203800000        1.7101900000 C         0.0000000000         0.0000000000        -0.0005859351       -0.0008434658       -0.0003695346
atom         3.4203800000        1.7101900000        3.4203800000 C         0.0000000000         0.0000000000        -0.0007043241       -0.0003708596       -0.0018406493
atom         1.7101900000        1.7101900000        1.7101900000 C         0.0000000000         0.0000000000        -0.0010605622       -0.0005163159       -0.0002126288
atom         1.7101900000        3.4203800000        3.4203800000 C         0.0000000000         0.0000000000        -0.0007139525       -0.0006519014       -0.0016747155
atom         2.5652900000        0.8551000000        0.8551000000 C         0.0000000000         0.0000000000         0.0002813888        0.0012592268        0.0022204274
atom         0.8551000000        0.8551000000        2.5652900000 C         0.0000000000         0.0000000000         0.0011907878        0.0004667458       -0.0002608584
atom         0.8551000000        2.5652900000        0.8551000000 C         0.0000000000         0.0000000000         0.0002266653        0.0006783979        0.0016408656
atom         2.5652900000        2.5652900000        2.5652900000 C         0.0000000000         0.0000000000         0.0013659350        0.0000242961        0.0004971036
energy     -2513.1910021870
charge 0
end
begin
comment generated by PY
lattice         3.4239462360        -0.0000000100         0.0000000160
lattice        -0.0000000100         3.4239462040        -0.0000000560
lattice         0.0000000160        -0.0000000560         3.4239462510
atom        -0.0000000000        3.4239500000        1.7119700000 C         0.0000000000         0.0000000000         0.0000105060        0.0012345555       -0.0015281484
atom         3.4239500000        1.7119700000        3.4239500000 C         0.0000000000         0.0000000000         0.0013766839       -0.0019906893        0.0015748697
atom         1.7119700000        1.7119700000        1.7119700000 C         0.0000000000         0.0000000000        -0.0012669062       -0.0008677525       -0.0004487826
atom         1.7119700000        3.4239500000        3.4239500000 C         0.0000000000         0.0000000000        -0.0013124378       -0.0003034812        0.0010950922
atom         2.5679600000        0.8559900000        0.8559900000 C         0.0000000000         0.0000000000         0.0000536444        0.0001577339        0.0009648218
atom         0.8559900000        0.8559900000        2.5679600000 C         0.0000000000         0.0000000000         0.0012778249        0.0017708510       -0.0002401558
atom         0.8559900000        2.5679600000        0.8559900000 C         0.0000000000         0.0000000000         0.0003368430       -0.0004612680       -0.0000602466
atom         2.5679600000        2.5679600000        2.5679600000 C         0.0000000000         0.0000000000        -0.0004992193        0.0004369781       -0.0013805069
energy     -2510.2368906051
charge 0
end
begin
comment generated by PY
lattice         3.4275091360        -0.0000000100         0.0000000160
lattice        -0.0000000100         3.4275091030        -0.0000000560
lattice         0.0000000160        -0.0000000560         3.4275091500
atom        -0.0000000000        3.4275100000        1.7137500000 C         0.0000000000         0.0000000000         0.0003764775        0.0005632635       -0.0010650807
atom         3.4275100000        1.7137500000        3.4275100000 C         0.0000000000         0.0000000000         0.0004743913       -0.0017351566       -0.0005492059
atom         1.7137500000        1.7137500000        1.7137500000 C         0.0000000000         0.0000000000        -0.0011458434       -0.0006352603       -0.0010003790
atom         1.7137500000        3.4275100000        3.4275100000 C         0.0000000000         0.0000000000        -0.0013528889        0.0007778194       -0.0000604553
atom         2.5706300000        0.8568800000        0.8568800000 C         0.0000000000         0.0000000000        -0.0013248379        0.0011927300        0.0014625916
atom         0.8568800000        0.8568800000        2.5706300000 C         0.0000000000         0.0000000000         0.0017772604        0.0016690566        0.0000399988
atom         0.8568800000        2.5706300000        0.8568800000 C         0.0000000000         0.0000000000         0.0021046686       -0.0007508425        0.0021046714
atom         2.5706300000        2.5706300000        2.5706300000 C         0.0000000000         0.0000000000        -0.0009092276       -0.0011046766       -0.0009090813
energy     -2507.2696870778
charge 0
end
begin
comment generated by PY
lattice         3.4310720350        -0.0000000100         0.0000000160
lattice        -0.0000000100         3.4310720020        -0.0000000560
lattice         0.0000000160        -0.0000000560         3.4310720500
atom        -0.0000000000        3.4310700000        1.7155400000 C         0.0000000000         0.0000000000         0.0006790608       -0.0005574566        0.0021143642
atom         3.4310700000        1.7155400000        3.4310700000 C         0.0000000000         0.0000000000        -0.0008319183        0.0013520662       -0.0007705495
atom         1.7155400000        1.7155400000        1.7155400000 C         0.0000000000         0.0000000000         0.0008631668        0.0017832766        0.0013950773
atom         1.7155400000        3.4310700000        3.4310700000 C         0.0000000000         0.0000000000         0.0015784033       -0.0008041416       -0.0004432399
atom         2.5733000000        0.8577700000        0.8577700000 C         0.0000000000         0.0000000000        -0.0017695233        0.0010317166       -0.0000610607
atom         0.8577700000        0.8577700000        2.5733000000 C         0.0000000000         0.0000000000         0.0004151255        0.0008602792       -0.0028492763
atom         0.8577700000        2.5733000000        0.8577700000 C         0.0000000000         0.0000000000         0.0009501527       -0.0014012127        0.0017821832
atom         2.5733000000        2.5733000000        2.5733000000 C         0.0000000000         0.0000000000        -0.0018844766       -0.0022414621       -0.0011675073
energy     -2504.2917755819
charge 0
end
begin
comment generated by PY
lattice         3.4346349340        -0.0000000100         0.0000000160
lattice        -0.0000000100         3.4346349010        -0.0000000560
lattice         0.0000000160        -0.0000000560         3.4346349490
atom        -0.0000000000        3.4346300000        1.7173200000 C         0.0000000000         0.0000000000         0.0000412927       -0.0025882715        0.0001067783
atom         3.4346300000        1.7173200000        3.4346300000 C         0.0000000000         0.0000000000        -0.0021022522        0.0011893741       -0.0019480962
atom         1.7173200000        1.7173200000        1.7173200000 C         0.0000000000         0.0000000000         0.0008229408        0.0004444155        0.0012553417
atom         1.7173200000        3.4346300000        3.4346300000 C         0.0000000000         0.0000000000        -0.0002374620       -0.0017280612       -0.0021511911
atom         2.5759800000        0.8586600000        0.8586600000 C         0.0000000000         0.0000000000         0.0010894028        0.0012410930       -0.0012765510
atom         0.8586600000        0.8586600000        2.5759800000 C         0.0000000000         0.0000000000        -0.0002273437       -0.0007011073        0.0012795463
atom         0.8586600000        2.5759800000        0.8586600000 C         0.0000000000         0.0000000000        -0.0001995925        0.0021692104        0.0002619834
atom         2.5759800000        2.5759800000        2.5759800000 C         0.0000000000         0.0000000000         0.0008360753       -0.0000035903        0.0024491270
energy     -2501.2995959451
charge 0
end
begin
comment generated by PY
lattice         3.4381978340        -0.0000000100         0.0000000160
lattice        -0.0000000100         3.4381978010        -0.0000000560
lattice         0.0000000160        -0.0000000560         3.4381978480
atom        -0.0000000000        3.4382000000        1.7191000000 C         0.0000000000         0.0000000000         0.0000303541       -0.0001305614        0.0001610262
atom         3.4382000000        1.7191000000        3.4382000000 C         0.0000000000         0.0000000000         0.0002232954       -0.0000708496        0.0004635148
atom         1.7191000000        1.7191000000        1.7191000000 C         0.0000000000         0.0000000000        -0.0000231902       -0.0003545190        0.0004333242
atom         1.7191000000        3.4382000000        3.4382000000 C         0.0000000000         0.0000000000         0.0001384776        0.0007988025        0.0006754898
atom         2.5786500000        0.8595500000        0.8595500000 C         0.0000000000         0.0000000000         0.0003166253       -0.0000475119       -0.0005043575
atom         0.8595500000        0.8595500000        2.5786500000 C         0.0000000000         0.0000000000        -0.0005497192       -0.0000672764        0.0002407088
atom         0.8595500000        2.5786500000        0.8595500000 C         0.0000000000         0.0000000000        -0.0002682261       -0.0002155836       -0.0008883112
atom         2.5786500000        2.5786500000        2.5786500000 C         0.0000000000         0.0000000000         0.0001554449        0.0001105595       -0.0005813944
energy     -2498.2963747766
charge 0
end
begin
comment generated by PY
lattice         3.4417607330        -0.0000000100         0.0000000160
lattice        -0.0000000100         3.4417607000        -0.0000000560
lattice         0.0000000160        -0.0000000560         3.4417607480
atom        -0.0000000000        3.4417600000        1.7208800000 C         0.0000000000         0.0000000000        -0.0003677336       -0.0005607623        0.0004069547
atom         3.4417600000        1.7208800000        3.4417600000 C         0.0000000000         0.0000000000        -0.0008545750        0.0001520308       -0.0002664538
atom         1.7208800000        1.7208800000        1.7208800000 C         0.0000000000         0.0000000000        -0.0002999156        0.0000989927       -0.0001278513
atom         1.7208800000        3.4417600000        3.4417600000 C         0.0000000000         0.0000000000         0.0005996034        0.0002302132        0.0002222307
atom         2.5813200000        0.8604400000        0.8604400000 C         0.0000000000         0.0000000000        -0.0006901171       -0.0003110905        0.0002045543
atom         0.8604400000        0.8604400000        2.5813200000 C         0.0000000000         0.0000000000         0.0007338415       -0.0002807825       -0.0005336229
atom         0.8604400000        2.5813200000        0.8604400000 C         0.0000000000         0.0000000000         0.0006003131        0.0005511508        0.0004392430
atom         2.5813200000        2.5813200000        2.5813200000 C         0.0000000000         0.0000000000         0.0002555229        0.0001433080       -0.0003681156
energy     -2495.2822658052
charge 0
end
begin
comment generated by PY
lattice         3.4453236320        -0.0000000100         0.0000000160
lattice        -0.0000000100         3.4453235990        -0.0000000570
lattice         0.0000000160        -0.0000000570         3.4453236470
atom        -0.0000000000        3.4453200000        1.7226600000 C         0.0000000000         0.0000000000         0.0006843865       -0.0006879324       -0.0002942560
atom         3.4453200000        1.7226600000        3.4453200000 C         0.0000000000         0.0000000000        -0.0006610795       -0.0002952750       -0.0007856046
atom         1.7226600000        1.7226600000        1.7226600000 C         0.0000000000         0.0000000000        -0.0004844042       -0.0002332373        0.0011311030
atom         1.7226600000        3.4453200000        3.4453200000 C         0.0000000000         0.0000000000         0.0001156853        0.0001493883       -0.0000432690
atom         2.5839900000        0.8613300000        0.8613300000 C         0.0000000000         0.0000000000        -0.0009799568        0.0006417020       -0.0001021239
atom         0.8613300000        0.8613300000        2.5839900000 C         0.0000000000         0.0000000000         0.0012539479        0.0007270218       -0.0008658071
atom         0.8613300000        2.5839900000        0.8613300000 C         0.0000000000         0.0000000000         0.0004974104        0.0005098526        0.0007234556
atom         2.5839900000        2.5839900000        2.5839900000 C         0.0000000000         0.0000000000        -0.0004029296       -0.0008115200        0.0002365020
energy     -2492.2554955057
charge 0
end
begin
comment generated by PY
lattice         3.4488865320        -0.0000000100         0.0000000160
lattice        -0.0000000100         3.4488864980        -0.0000000570
lattice         0.0000000160        -0.0000000570         3.4488865460