begin
comment generated by PY
lattice        11.6712400000         0.0000000000         0.0000000000
lattice         0.0000000000        10.8127600000         0.0000000000
lattice         0.0000000000         0.0000000000        13.4290800000
atom         7.1444400000        5.2183500000       10.9608400000 H         0.0000000000         0.0000000000        32.0117491000      132.8704129715       27.7720854078
atom         8.2650900000        2.7401300000       12.1674400000 H         0.0000000000         0.0000000000        75.7125125341      -44.8156809649       83.1379830801
atom         3.4220300000        8.3294800000        1.5477000000 H         0.0000000000         0.0000000000       -85.5521015316       42.1042698353      -84.0882144661
atom         8.9976800000        7.8350200000        5.1203500000 H         0.0000000000         0.0000000000       -87.1812890525       67.4077958548       97.8041107719
atom         2.9143100000        2.7710200000        8.1067100000 H         0.0000000000         0.0000000000        64.7138901829      -34.0785590656      -96.3924664116
atom         3.3274600000        8.1579200000        8.0362200000 H         0.0000000000         0.0000000000      -100.7966668824      -59.3766905351      -65.6334846809
atom         8.7104700000        2.6265900000        5.0942800000 H         0.0000000000         0.0000000000        69.5258459180       26.2966370531       79.5393619935
atom         2.4873500000        2.6504400000        1.4745300000 H         0.0000000000         0.0000000000        82.5680679153       46.6936500953      -89.6972911774
atom         9.2420400000        8.0332100000       11.6904400000 H         0.0000000000         0.0000000000       -82.1312732575      -31.0785610896      102.8721218361
atom         8.3443500000        2.5230100000        0.4759600000 H         0.0000000000         0.0000000000        80.6018935497      -27.3013612488     -122.8130676799
atom         3.4049500000        8.6146500000       13.2806400000 H         0.0000000000         0.0000000000       -98.4620439084        1.8851746374      106.3362408694
atom         8.8481200000        8.1721400000        6.9298000000 H         0.0000000000         0.0000000000       -66.6943882591       20.2861401352     -129.5314375779
atom         2.8934000000        2.4290100000        6.3303400000 H         0.0000000000         0.0000000000        74.0571513061        2.2804434970      115.3839179917
atom         3.1599900000        7.8316100000        6.4532500000 H         0.0000000000         0.0000000000       -90.0960332640      -23.2311515035      104.4705044905
atom         8.8483100000        2.6566100000        6.7976100000 H         0.0000000000         0.0000000000        70.8459996713       34.2933868779     -106.7825090169
atom         2.5924700000        2.8804500000       13.1065400000 H         0.0000000000         0.0000000000        73.1828054283        8.4210985776      126.1818944488
atom         9.2441400000        7.8495000000        0.0637300000 H         0.0000000000         0.0000000000       -83.5875831321      -25.1732579496     -117.5970438805
atom         9.9402600000        3.6303700000       10.8714400000 H         0.0000000000         0.0000000000        90.8995982361      -49.4707232497       88.8916817523
atom         1.4432800000        7.4891500000        2.8345300000 H         0.0000000000         0.0000000000       -75.0345578503       38.9572473087     -101.0882615176
atom         6.8025900000        6.9785900000        4.0540500000 H         0.0000000000         0.0000000000       -58.4953410512       70.6981009816      102.9155203121
atom         4.8787100000        3.7376700000        9.2471500000 H         0.0000000000         0.0000000000        68.5543876337      -72.5955167662     -103.2833617198
atom         1.4407600000        8.9386400000        9.4409300000 H         0.0000000000         0.0000000000       -70.3465657071      -43.2914446189      -86.4440418536
atom        10.6877200000        1.9189800000        3.6180600000 H         0.0000000000         0.0000000000        86.9644957910       27.5980476860      105.3794872437
atom         4.3082300000        1.7377200000        2.7570200000 H         0.0000000000         0.0000000000        72.6695588636       61.3597204405      -99.4853875172
atom         7.1394500000        8.9269100000       10.8372400000 H         0.0000000000         0.0000000000       -74.2543056509      -54.4067722222       84.6447836103
atom        11.5763200000        3.9260900000       11.6167400000 H         0.0000000000         0.0000000000      -105.0070458528      -99.9831016518       -6.2320264001
atom        11.4876200000        7.1865000000        1.8966400000 H         0.0000000000         0.0000000000       134.1393451495       80.7123069647       11.7428917631
atom         5.2716800000        7.1451100000        5.1460400000 H         0.0000000000         0.0000000000       137.4622308447       60.9025054704      -32.7033102354
atom         6.4973900000        3.5362700000        8.3952200000 H         0.0000000000         0.0000000000      -130.1926934404      -62.1225107660        5.3054138029
atom        11.4968200000        9.2660500000        8.7450000000 H         0.0000000000         0.0000000000       119.7899169831      -96.2647462736      -13.6544796654
atom         0.6298700000        1.7549800000        4.5727400000 H         0.0000000000         0.0000000000      -107.0868971837       52.2215466576      -15.8835247989
atom         5.9607400000        1.6810000000        1.9671500000 H         0.0000000000         0.0000000000      -130.2628535559       80.2261879521        2.2740380599
atom         5.5578900000        8.9027500000       11.7054400000 H         0.0000000000         0.0000000000       122.8651530995      -48.2580525742       -2.1944862234
atom         9.3676300000        0.8369500000       10.4674400000 H         0.0000000000         0.0000000000        65.3694417493        7.8901850966      121.5042789479
atom         2.0869900000       10.1271800000        3.0785200000 H         0.0000000000         0.0000000000       -67.2468248266      -18.3760280787     -109.1795469619
atom         7.7531100000       10.1624800000        3.6629500000 H         0.0000000000         0.0000000000       -56.7491462428      -31.1972769734      111.7235580785
atom         3.5364500000        1.2815500000        9.6192000000 H         0.0000000000         0.0000000000        78.5590089442      -40.2329690565      -86.1298542830
atom         1.9905000000        6.2608300000        9.9187000000 H         0.0000000000         0.0000000000       -45.2185765783      -10.7597165064     -130.5732280873
atom         9.8844900000        4.5857100000        3.7711600000 H         0.0000000000         0.0000000000        76.7998253687       22.5968367748       85.5406212004
atom         3.4334500000        4.7014400000        2.8600000000 H         0.0000000000         0.0000000000        87.9923082157       -8.2620281499     -116.1541207149
atom         7.9333300000        6.4561500000       10.1241300000 H         0.0000000000         0.0000000000       -40.2869438184       -7.8586544455      126.1280028492
atom        10.5893200000       10.7217800000       11.3812400000 H         0.0000000000         0.0000000000       -75.8738622252      117.2860737529        9.6249129567
atom         1.1320600000        0.3413900000        2.1281100000 H         0.0000000000         0.0000000000        30.0756718068     -130.4771829562        1.2037336376
atom         6.6357600000        0.1419700000        4.7261800000 H         0.0000000000         0.0000000000        66.6167023775     -125.1317960683       -9.2777400439
atom         4.5593100000       10.7001800000        9.0647700000 H         0.0000000000         0.0000000000       -29.8962770326      126.1427415287      -16.3684096643
atom         1.0574200000        5.1078000000        8.9124100000 H         0.0000000000         0.0000000000        43.7393380982      135.3511276650       -5.8473733664
atom        11.1399200000        5.5882200000        4.8688400000 H         0.0000000000         0.0000000000       -83.0046724010     -121.2641960433      -41.2397089049
atom         4.7876900000        5.5449300000        1.8384200000 H         0.0000000000         0.0000000000       -72.4202251240     -113.9563285901       20.7728514365
atom         8.9063000000        2.3889800000       12.9377400000 C         0.0000000000         0.0000000000        96.4467134077       -5.6860482516      -13.3112709441
atom         2.7680500000        8.6475600000        0.7511100000 C         0.0000000000         0.0000000000      -106.3106339525       43.4565080641       36.2891097276
atom         8.3343400000        8.2815100000        5.9373100000 C         0.0000000000         0.0000000000      -113.0923465833       25.4865494467       54.9239430852
atom         3.4583100000        2.4102800000        7.2662700000 C         0.0000000000         0.0000000000       106.4083332462      -80.6573605849       -3.3913513333
atom         2.5789500000        7.7184300000        7.3709700000 C         0.0000000000         0.0000000000       -64.7649173901       -7.5635278671       35.8983983911
atom         9.3451500000        2.8848300000        5.8785400000 C         0.0000000000         0.0000000000       114.0609109572       32.8466974001      -62.1390317196
atom         3.1329600000        2.9677500000        0.6637000000 C         0.0000000000         0.0000000000       128.1961290994       36.9894374714      -62.7053704894
atom         8.6215800000        7.7244900000       12.5664400000 C         0.0000000000         0.0000000000       -75.2538718566      -33.3896470527        3.9940023681
atom        10.7068200000        3.2338600000       11.5806400000 C         0.0000000000         0.0000000000       -40.4460408409      -78.0094647877       78.3892895515
atom         0.8050500000        7.8006600000        2.0025300000 C         0.0000000000         0.0000000000         2.6664408626       98.0272930346      -93.9424169731
atom         6.3255600000        7.5514700000        4.8849500000 C         0.0000000000         0.0000000000        53.9268985438       84.5472205274       56.6561671215
atom         5.4631000000        3.1212100000        8.4725900000 C         0.0000000000         0.0000000000       -61.3092601730      -77.9375210978      -27.4231538665
atom         0.7621000000        8.5980600000        8.6939500000 C         0.0000000000         0.0000000000         4.1342464252      -95.6715005045      -71.3982380059
atom        11.3606200000        2.2218900000        4.4658600000 C         0.0000000000         0.0000000000       -84.5735888904      120.7615478113       89.0726123507
atom         4.9505900000        2.2237500000        1.9914200000 C         0.0000000000         0.0000000000        -6.7466959729       74.0941285477      -71.8019433972
atom         6.5426100000        8.4698700000       11.6149400000 C         0.0000000000         0.0000000000        67.2380894102     -104.3780536918       35.9503817405
atom         9.9968600000        0.8443500000       11.3989400000 C         0.0000000000         0.0000000000        58.2118525263       59.6383809382       61.8862486912
atom         1.4657000000       10.1213800000        2.1776100000 C         0.0000000000         0.0000000000        -9.4881951370        4.9959294849      -66.7129773210
atom         7.1787200000        9.9949900000        4.5818600000 C         0.0000000000         0.0000000000       -47.6826077255      -71.3675785509       75.3421033962
atom         4.2646400000        0.9142300000        8.9088600000 C         0.0000000000         0.0000000000        70.1697928387       65.5657558656     -125.5822213013
atom         1.4713200000        6.1450600000        8.9243700000 C         0.0000000000         0.0000000000       -30.7631578627       65.5810027435      -52.4162636955
atom        10.5624200000        4.6296900000        4.5919300000 C         0.0000000000         0.0000000000         8.4113120459     -115.7308176327       62.9499730350
atom         4.2157800000        4.6304000000        1.9887400000 C         0.0000000000         0.0000000000        45.2295277042      -90.1467153369      -61.6851003858
atom         7.4708400000        6.2606000000       11.1034400000 C         0.0000000000         0.0000000000       -48.9838412246       10.5201873587       80.3082266204
atom         0.4181200000        3.4662200000        0.4558600000 O         0.0000000000         0.0000000000      -300.3439209907      -44.0423874993       33.8052891750
atom        11.4484200000        7.2124200000       13.0608400000 O         0.0000000000         0.0000000000       254.2497010619      118.1627861561      -19.7381042142
atom         5.1551000000        7.2700200000        7.3019900000 O         0.0000000000         0.0000000000       314.9078427572       81.2238739527      -22.5900182657
atom         6.6780500000        3.3503000000        6.0547900000 O         0.0000000000         0.0000000000      -296.7162867606      -78.0377120144      -14.9970660820
atom        11.0205200000        8.8698700000        6.5405800000 O         0.0000000000         0.0000000000       294.7432709433      -88.8561739289      -46.2563675055
atom        10.5572200000        1.9432100000        7.9868700000 O         0.0000000000         0.0000000000       168.7976502213      -33.5947767321     -257.9942610772
atom         6.3015900000        1.8058700000       13.1807400000 O         0.0000000000         0.0000000000      -286.5358276395       77.0507103431      -57.8026932619
atom         5.6482700000        8.9926500000        0.6362300000 O         0.0000000000         0.0000000000       288.4504304379     -116.0564678356        3.4027548508
atom        10.3490200000        3.1516400000        1.7335400000 O         0.0000000000         0.0000000000       111.1079358315       24.4402846775     -269.3600363588
atom         1.5273600000        8.0262500000       12.0393400000 O         0.0000000000         0.0000000000      -148.4665305132      -69.4527242664      213.1818788050
atom         7.0728700000        7.8582100000        8.2461300000 O         0.0000000000         0.0000000000      -174.2270747646      -57.7566784765     -234.7614754596
atom         4.8948200000        2.4517600000        5.0627700000 O         0.0000000000         0.0000000000       147.9966827501      138.2804165487      224.4158085484
atom         1.0133200000        8.1166400000        5.2750800000 O         0.0000000000         0.0000000000      -117.6514552674       92.9741230743      261.6351520410
atom         0.7695600000        1.5692200000        6.8943500000 O         0.0000000000         0.0000000000      -285.2143116534       51.0520154980       13.8700221462
atom         4.5811900000        2.5187300000       11.9520400000 O         0.0000000000         0.0000000000       134.8447401232      -91.6029919056      242.9726294630
atom         7.4875600000        8.1957800000        1.5827800000 O         0.0000000000         0.0000000000      -161.3275243609       80.6414198438     -230.4624920545
atom         9.0317000000        0.5348500000        1.3438700000 O         0.0000000000         0.0000000000       101.4750046782      -78.8767610732     -254.8208523191
atom         2.5487900000       10.4977800000       12.2874400000 O         0.0000000000         0.0000000000      -137.6368838282       53.8444683092      266.0547294105
atom         8.5975500000       10.2136800000        7.7408300000 O         0.0000000000         0.0000000000      -160.1891091809       96.8124446533     -213.9293522564
atom         3.1410600000        0.3308700000        5.5388500000 O         0.0000000000         0.0000000000       160.9281115677      -62.6317321589      254.7893227110
atom         2.5604800000        5.8510200000        5.5454200000 O         0.0000000000         0.0000000000      -133.0358164239      -91.2331206062      266.3934042718
atom         8.9928000000        4.6277700000        7.8298800000 O         0.0000000000         0.0000000000       130.9779065153       70.0440799924     -247.3018454613
atom         2.8522700000        4.9464300000       12.2013400000 O         0.0000000000         0.0000000000       139.3717417186       63.1791303696      229.3888803944
atom         8.5288100000        5.5342300000        1.0048900000 O         0.0000000000         0.0000000000      -161.8259603882      -10.7685554829     -268.8249661438
atom        10.0859000000        9.9830100000        0.0328600000 O         0.0000000000         0.0000000000      -130.5413090041      217.2980470190       48.9586952257
atom         1.0900100000        0.7699300000        0.1315200000 O         0.0000000000         0.0000000000       199.6194018970     -191.9156516361      -59.9551762027
atom         7.3008900000        0.7675000000        6.5942200000 O         0.0000000000         0.0000000000       137.8948929322     -216.5360379498       48.3572557525
atom         4.5688100000       10.0172500000        6.8336600000 O         0.0000000000         0.0000000000      -181.4790599959      180.0106385718      -76.3381171901
atom         1.2575900000        4.5204100000        6.7810600000 O         0.0000000000         0.0000000000       185.8943384750      237.0651839960      -43.7720874822
atom        10.0574100000        6.1558100000        6.7261100000 O         0.0000000000         0.0000000000      -103.7121252381     -258.0062491340       20.0826100388
atom         4.1906700000        6.2763200000       13.4159400000 O         0.0000000000         0.0000000000      -171.4018955578     -234.2823200698      -63.4380937380
atom         6.9831600000        4.7144000000       13.0696400000 O         0.0000000000         0.0000000000       212.2783609165      169.4605937966       91.6468161618
atom         0.5170000000        0.4307500000       10.0588200000 O         0.0000000000         0.0000000000       -49.5304049460      262.5784696575      109.1525419447
atom        11.1229200000       10.4492800000        3.7875400000 O         0.0000000000         0.0000000000        10.6038703523     -272.9323976663     -114.6453068329
atom         5.0203000000       10.4695800000        3.2676100000 O         0.0000000000         0.0000000000         0.6340604807     -266.4212025690      157.4808978701
atom         6.3975700000        0.2700400000       10.2881400000 O         0.0000000000         0.0000000000        34.0684648900      248.1468593841     -132.7747434956
atom        10.8477200000        5.7339100000       10.2950400000 O         0.0000000000         0.0000000000        43.4689980564      286.1349726507     -134.6697670534
atom         1.0431400000        5.2112200000        3.1773300000 O         0.0000000000         0.0000000000       -24.0263071609     -277.8913691759      116.5683941220
atom         6.2827900000        5.1475100000        3.3113400000 O         0.0000000000         0.0000000000        24.9855107947     -274.1506642824      -88.7518317776
atom         5.1688100000        5.6567300000       10.0143500000 O         0.0000000000         0.0000000000        18.3811771893      255.5868063627      135.6928567321
atom         1.2367400000        2.4601900000       10.3162400000 O         0.0000000000         0.0000000000      -205.4065111108     -193.3323109778       43.1686191910
atom        10.2710200000        8.4261200000        3.4003700000 O         0.0000000000         0.0000000000       226.0088593345      214.5080336378      -34.1468913913
atom         4.0679200000        8.5495400000        3.9760400000 O         0.0000000000         0.0000000000       225.5536618471      194.2883664434      -23.1706773593
atom         7.4920700000        2.1109000000        9.7357900000 O         0.0000000000         0.0000000000      -220.4041321982     -186.0692162671        2.8029335472
atom        10.1029700000        7.8005900000        9.8633000000 O         0.0000000000         0.0000000000       215.3375352067     -211.5145094336      -19.8730686523
atom         1.9830300000        3.2759600000        3.6227800000 O         0.0000000000         0.0000000000      -234.7801344103      174.6380301195       -0.3990386298
atom         7.2796400000        3.1981000000        2.7769700000 O         0.0000000000         0.0000000000      -226.0494655947      194.9794652970       44.7751411306
atom         4.2109900000        7.5181900000       10.5173400000 O         0.0000000000         0.0000000000       240.6194076739     -154.9488889752       28.2698026380
atom        10.0261200000        3.2574300000       12.8915400000 N         0.0000000000         0.0000000000        10.4600334573     -130.0489900277      -64.2014912633
atom         1.5542000000        7.8053200000        0.7978300000 N         0.0000000000         0.0000000000        14.9201856927      100.3097785314       49.3651589156
atom         7.1681600000        7.5035700000        6.0178600000 N         0.0000000000         0.0000000000       -58.7775722296      117.4017370933      -90.9717762360
atom         4.7232600000        3.1795600000        7.1816700000 N         0.0000000000         0.0000000000         4.8237652270     -126.1031069396       86.9917964032
atom         1.3912400000        8.5660300000        7.4500500000 N         0.0000000000         0.0000000000        -5.7015394315     -117.6353481063       66.8910030739
atom        10.5730200000        2.0223600000        5.6739200000 N         0.0000000000         0.0000000000        -5.9564724281      118.1526388844        0.4386603263
atom         4.3196400000        2.1232800000        0.6861800000 N         0.0000000000         0.0000000000       -13.5874299080      126.9316370172       89.3863800921
atom         7.4637900000        8.5624700000       12.7297400000 N         0.0000000000         0.0000000000       -35.1933915544     -139.7874166048      -67.3811788988
atom         9.3037600000        1.0221100000       12.6349400000 N         0.0000000000         0.0000000000        49.8136707371      106.2060092892      -39.9768979487
atom         2.2782900000        9.9932000000        1.0080900000 N         0.0000000000         0.0000000000       -68.1266263077     -131.5523379872       37.4715626029
atom         7.9354500000        9.6617400000        5.7803500000 N         0.0000000000         0.0000000000       -53.6568318201      -54.4309824412      -95.1428073836
atom         3.7604500000        1.0572600000        7.5624700000 N         0.0000000000         0.0000000000         3.8483127203      112.1669166539       55.1466694348
atom         2.2677900000        6.3474700000        7.7268000000 N         0.0000000000         0.0000000000       -88.1731052035      101.1977162466       14.7815061674
atom         9.6989300000        4.2437800000        5.7115200000 N         0.0000000000         0.0000000000        51.5590834413      -94.1844121884       15.9916317375
atom         3.6514900000        4.2834100000        0.7181500000 N         0.0000000000         0.0000000000       -34.0968374795      -59.3046010116      107.0039427796
atom         8.2973400000        6.3408200000       12.2329400000 N         0.0000000000         0.0000000000       -99.5376141566      126.7604585281      -22.9640735549
atom        11.0038200000        1.8747900000       11.2780400000 N         0.0000000000         0.0000000000       -66.4357464612       19.1921967286      -24.0650193340
atom         0.3726700000        9.2215500000        2.2120800000 N         0.0000000000         0.0000000000       128.4572337764      -74.3268947967       77.7625567824
atom         6.2073900000        8.9828800000        4.4451000000 N         0.0000000000         0.0000000000        -2.2795100726        4.8776989673       13.1298764647
atom         5.4611200000        1.7674900000        8.9360900000 N         0.0000000000         0.0000000000       -37.7470969414       12.3163241084       15.7166349494
atom         0.3984800000        7.1689300000        8.9671700000 N         0.0000000000         0.0000000000        51.3578922228       11.2276212872       50.5926152387
atom        11.5390200000        3.6141800000        4.3179200000 N         0.0000000000         0.0000000000       -11.4806526579       11.9616825556       -7.4363154996
atom         5.1408200000        3.6050300000        2.2978800000 N         0.0000000000         0.0000000000       -21.1413710231      -20.0327347562      -28.4668242928
atom         6.3236100000        7.0828600000       11.3021400000 N         0.0000000000         0.0000000000        62.0772612859       47.7315057053      -62.8359858388
atom        10.8697200000        3.2653100000        0.6367800000 N         0.0000000000         0.0000000000        91.7521093988       15.6789597250       87.8037828959
atom         0.8909700000        7.7111100000       13.0046400000 N         0.0000000000         0.0000000000       -41.8154701983      -42.0522582998      -52.6786372252
atom         6.3763000000        7.5997300000        7.2689300000 N         0.0000000000         0.0000000000       -28.4355312510      -26.1179296159      129.1728265661
atom         5.4970900000        2.9997000000        6.0083100000 N         0.0000000000         0.0000000000        54.1495801554      -50.6518365039      -64.3786375980
atom         0.5204700000        8.4999000000        6.3493500000 N         0.0000000000         0.0000000000       -77.5756449011        1.0238249631      -85.6388961290
atom        11.2497200000        1.8180600000        6.9571700000 N         0.0000000000         0.0000000000        57.2351110778       14.3827872332       86.5800857022
atom         5.1253900000        2.1455400000       12.9883400000 N         0.0000000000         0.0000000000        58.5300528630       21.2825624413      -46.9020751843
atom         6.8151000000        8.5329600000        0.6353700000 N         0.0000000000         0.0000000000       -56.9553382365       31.6624384892       78.5761856415
atom         9.4859100000        0.1859000000        0.2580200000 N         0.0000000000         0.0000000000        24.2216254098      -50.2138836687       78.5206868865
atom         1.9676400000       10.7131800000       13.3541400000 N         0.0000000000         0.0000000000       -46.3105179340       70.9314443165      -78.4416158932
atom         7.9277500000       10.5650800000        6.7722300000 N         0.0000000000         0.0000000000        29.2010064676       10.2389292689       68.9096262891
atom         3.7890300000        0.1070500000        6.5621000000 N         0.0000000000         0.0000000000        40.4539912602      -13.2851489424      -45.2709942787
atom         2.0205400000        5.5145700000        6.6002200000 N         0.0000000000         0.0000000000       -37.5616728861      -49.9854184872      -88.4077393789
atom         9.5726200000        5.0085200000        6.8304000000 N         0.0000000000         0.0000000000        11.0026032383      111.5378438169       80.2719203567
atom         3.4771700000        5.2114300000       13.1823400000 N         0.0000000000         0.0000000000        62.5200911311       61.7014687684      -45.4946955165
atom         7.8913900000        5.4718400000       13.3886400000 N         0.0000000000         0.0000000000       -29.2919861116      -73.7508758579       42.4342696032
atom         0.3810700000        1.5753100000       10.4968400000 N         0.0000000000         0.0000000000       122.2032911897      -24.5633849560      -49.6150660448
atom        11.1490200000        9.3303900000        3.2600900000 N         0.0000000000         0.0000000000      -116.6555622728       60.9888688241       16.9365355725
atom         5.0258700000        9.3561300000        3.8913900000 N         0.0000000000         0.0000000000       -65.1458067489       15.9754344509      -59.0514591756
atom         6.5273900000        1.3344700000        9.7185600000 N         0.0000000000         0.0000000000        51.4862332262        2.6177639326       30.1263213034
atom        10.9747200000        6.8996500000        9.7739100000 N         0.0000000000         0.0000000000      -104.1927923847      -27.3653507977       40.5895320658
atom         1.0072800000        4.0643900000        3.6373100000 N         0.0000000000         0.0000000000       100.4348893582       29.5083866832      -13.5331914579
atom         6.3216400000        3.9896700000        2.8875700000 N         0.0000000000         0.0000000000        54.8055304412       33.0105365907      -36.8260693924
atom         5.1808800000        6.7713300000       10.5738400000 N         0.0000000000         0.0000000000       -97.7031034806      -60.5612145751      -69.0295617527
energy    -35594.1766079771
charge 0
end
begin
comment generated by PY
lattice        11.6940800000         0.0000000000         0.0000000000
lattice         0.0000000000        10.8339200000         0.0000000000
lattice         0.0000000000         0.0000000000        13.4553600000
atom         6.6499300000        5.0489500000       11.5138800000 H         0.0000000000         0.0000000000        67.4927543344      115.8065822365       24.0053687801
atom         8.5259100000        2.5024700000       11.7016800000 H         0.0000000000         0.0000000000        90.4025839466      -28.0528992953       87.8974247372
atom         3.4045000000        8.2302600000        1.4267800000 H         0.0000000000         0.0000000000      -108.1166416779       41.6849090228      -73.2357718435
atom         9.2710700000        8.1117400000        5.1802100000 H         0.0000000000         0.0000000000       -78.2832383691       47.6739864885       75.8962769285