begin
comment generated by PY
lattice         9.2045542600         0.0000000000         0.0000000000
lattice         0.0000000000         8.5275117400         0.0000000000
lattice         0.0000000000         0.0000000000        10.5908794200
atom         4.5350200000        4.8963900000        6.5712600000 H         0.0000000000         0.0000000000        23.8216180548       10.6817139334      -56.4476013745
atom         6.8136100000        2.4209000000        9.5402400000 H         0.0000000000         0.0000000000        55.4138761811       50.9904157486     -102.3761718304
atom         1.6698700000        5.2384700000        3.1876700000 H         0.0000000000         0.0000000000        39.7080960642      -49.4407089939       49.9366613596
atom         6.2661400000        6.3260300000        3.4653900000 H         0.0000000000         0.0000000000       -71.8001986955       -4.8670680810      -55.0921841912
atom         0.7461600000        2.7207500000        6.4911000000 H         0.0000000000         0.0000000000       -36.9401553179      -63.4181281049       -6.3265985516
atom         3.2291500000        7.9492300000        6.1562800000 H         0.0000000000         0.0000000000        18.1817645937        7.3511221611      -35.6081955317
atom         5.9285400000        7.9191000000        6.1101700000 H         0.0000000000         0.0000000000        -0.4546545336      -24.9747062882      -43.5773385837
atom         2.6559300000        0.8350200000        1.4680000000 H         0.0000000000         0.0000000000        -7.6565813218       -6.6953559423      -62.4448637154
atom         7.2882600000        7.5438700000        9.9499400000 H         0.0000000000         0.0000000000       -69.3222823967        7.6022460372       16.3189253612
atom         8.1068900000        1.4172600000        0.7968600000 H         0.0000000000         0.0000000000       -93.9676132597      -44.3151103214        7.7707396320
atom         3.4417900000        8.4092100000        0.0226800000 H         0.0000000000         0.0000000000        31.3894617117       20.0283827716       72.7408371509
atom         7.6771100000        6.3247300000        5.5348400000 H         0.0000000000         0.0000000000      -114.4375827138      -25.7501884176      -66.7477739929
atom         2.5059400000        2.1688400000        4.6876900000 H         0.0000000000         0.0000000000       -65.7920050288       71.9950126139       15.8051426371
atom         2.7781000000        6.8952600000        4.5287600000 H         0.0000000000         0.0000000000        52.2446104903       -2.2137526084       64.0870317591
atom         6.4937100000        3.0080100000        6.9325600000 H         0.0000000000         0.0000000000       -36.7521774957       36.7193710344      -56.3538925233
atom         1.4390800000        2.8341500000        9.5913400000 H         0.0000000000         0.0000000000        86.9567308462       64.7673026112      -26.5065989807
atom         5.7815000000        3.8537500000       10.2754400000 H         0.0000000000         0.0000000000        16.7448763608      -80.9950335445       14.7966787189
atom         8.9615800000        2.2807900000        7.5779400000 H         0.0000000000         0.0000000000       -67.0283463007      -32.4252375422      -36.0899799098
atom         7.1814000000        3.9130800000        3.1988000000 H         0.0000000000         0.0000000000        14.3889134919       93.6032457997       24.4161142769
atom         6.7758400000        3.3087700000        5.7167800000 H         0.0000000000         0.0000000000       -62.7818015053       34.1970052820      -13.7692547730
atom         2.1315200000        4.2706800000        7.5753000000 H         0.0000000000         0.0000000000        -3.6765984335      113.8326829706       46.3464408035
atom         2.3621700000        6.3713100000        7.9729100000 H         0.0000000000         0.0000000000       -42.6854452018      -39.7870512857      -65.7534324572
atom         7.3809600000        1.3943500000        3.3128600000 H         0.0000000000         0.0000000000         2.9728505293      -22.4625342030      -96.4144424170
atom         4.1150100000        1.0086700000        3.9994300000 H         0.0000000000         0.0000000000        81.6757592632      -16.8333698728       51.9263560872
atom         6.9717900000        0.3229800000        8.4885300000 H         0.0000000000         0.0000000000        34.2948065000       10.6695401000        3.7632302029
atom         8.1408800000        4.6758300000        9.8311400000 H         0.0000000000         0.0000000000       -37.7714259571       68.3029977734      -43.5528168048
atom         7.9614400000        4.1601800000        1.5316900000 H         0.0000000000         0.0000000000       -66.7167373734       42.8868150384      -48.6349044724
atom         4.2594500000        5.0632000000        3.1355900000 H         0.0000000000         0.0000000000        40.3189206517      -34.1865132970      -81.2688610031
atom         1.8713600000        4.6672400000        9.0774400000 H         0.0000000000         0.0000000000       -37.5470124134      -23.8771612372       14.8545110343
atom         0.6306700000        6.6430600000        7.6966800000 H         0.0000000000         0.0000000000       -29.5483781329      -42.2454074258      -72.5150894908
atom         8.1028400000        0.2300700000        2.5573500000 H         0.0000000000         0.0000000000       -71.1605779422       35.7665828554        3.3817618060
atom         5.3808000000        0.2633900000        1.1625200000 H         0.0000000000         0.0000000000       -64.7801966331       89.9399475713       21.9950517277
atom         4.2664600000        8.4869200000        9.3607400000 H         0.0000000000         0.0000000000        81.4333989020      -14.3833850514      -16.1542740231
atom         0.1124900000        5.8410500000        0.0903700000 H         0.0000000000         0.0000000000        77.7697815350       23.4380222103       62.6016030484
atom         0.4762600000        8.4050000000        5.5842900000 H         0.0000000000         0.0000000000        -7.1087910237      -74.7074792697      -40.9015482098
atom         5.6532200000        8.2411200000        1.2480700000 H         0.0000000000         0.0000000000        43.3174448813      -74.5151354469       -3.1280801397
atom         3.7655600000        2.3262600000        8.3475300000 H         0.0000000000         0.0000000000       -34.6669651382      -17.9308923022       13.3406807237
atom         0.5990300000        5.0790700000        7.1873300000 H         0.0000000000         0.0000000000       -31.1370165118        6.6613363709      -32.1780285633
atom         1.5075800000        2.8516400000        0.9646300000 H         0.0000000000         0.0000000000        82.8943639830       35.2647653151      -32.4909311958
atom         2.5805400000        4.2157600000        4.4173800000 H         0.0000000000         0.0000000000        -7.3545838614      103.6901246643      -91.0382811231
atom         4.0890600000        4.9961400000        6.9784600000 H         0.0000000000         0.0000000000       -35.1279692026       24.7601730726       26.1092206020
atom         1.4912000000        6.9225100000        0.6405500000 H         0.0000000000         0.0000000000       -62.4951762039      -71.2517385356       14.5203417646
atom         0.0408200000        0.5882200000        3.0511400000 H         0.0000000000         0.0000000000        50.3561486397       -2.2644644215       42.9209854902
atom         4.8446400000        7.2747300000        4.4799100000 H         0.0000000000         0.0000000000       -43.7239751513      -14.8147604530       49.8210528870
atom         5.2895200000        0.6371000000        8.2790400000 H         0.0000000000         0.0000000000       -10.9823240583       30.6246403451      -15.8890950760
atom         8.2072200000        3.7602600000        7.2287500000 H         0.0000000000         0.0000000000       -20.3378961894     -106.7912591041      -50.2895555858
atom         0.9646000000        3.7179300000        2.6995100000 H         0.0000000000         0.0000000000       -22.5969103685       55.2012160317      -12.0060904279
atom         5.1698900000        5.4637700000        0.6913100000 H         0.0000000000         0.0000000000       -59.8363806561      -39.3578920930      -43.7281891989
atom         6.9760000000        2.8100000000        8.5091700000 C         0.0000000000         0.0000000000       -22.3870407818       13.4296779445      142.5429537185
atom         3.2212900000        6.6808600000        0.7024000000 C         0.0000000000         0.0000000000        30.4433104951      -50.3543155044       27.5647782292
atom         6.6640600000        6.2112500000        5.1259600000 C         0.0000000000         0.0000000000       -88.9337225364       82.5729904703        2.4195236752
atom         2.1855400000        3.4322100000        5.9348200000 C         0.0000000000         0.0000000000        95.7415771714      127.1587656040      -46.8103790505
atom         2.0264600000        6.8108700000        5.8951600000 C         0.0000000000         0.0000000000      -272.4709532788     -120.3530917375      -17.7157612405
atom         7.6185600000        2.0794000000        4.8331000000 C         0.0000000000         0.0000000000       154.8629874304      -17.0116987005      -27.9896234054
atom         1.4383600000        1.2689200000       10.1872400000 C         0.0000000000         0.0000000000        28.9175674441       20.0424466950       91.5084991702
atom         7.1213200000        4.3650600000        0.7781800000 C         0.0000000000         0.0000000000        94.3141249562      -18.8635309209      -97.8211326989
atom         8.0856100000        4.6505000000        8.5335000000 C         0.0000000000         0.0000000000        19.5914012126       94.9338924249     -127.3721471061
atom         8.4950900000        5.2439300000        2.5154900000 C         0.0000000000         0.0000000000        43.1500056807      -43.6456556686       23.0394788473
atom         4.8073200000        4.7602800000        2.2725100000 C         0.0000000000         0.0000000000        33.6687750486      -41.7550591472      -11.0042899697
atom         2.5982100000        2.6113800000        6.9273500000 C         0.0000000000         0.0000000000       187.0868858781      -61.4290080088        4.0477354952
atom         1.8123500000        7.3573700000        7.1756500000 C         0.0000000000         0.0000000000        23.1630184626      114.0082468776      -72.5401029637
atom         7.2157600000        0.7577200000        2.3765800000 C         0.0000000000         0.0000000000       102.8765256423      -13.2738836654       95.3672890817
atom         4.6689700000        0.9171100000        1.9941200000 C         0.0000000000         0.0000000000       -45.8256484075      121.3540021667      -26.5734769641
atom         5.5320900000        0.2410700000        9.6686400000 C         0.0000000000         0.0000000000       -39.9084566220      -81.3493629576      103.3750238253
atom         0.2679100000        7.8278500000        9.4263400000 C         0.0000000000         0.0000000000       -56.8914733128      -61.8334367251       36.9860045383
atom         0.4810500000        0.0280600000        1.4749900000 C         0.0000000000         0.0000000000       163.5378551900      -36.9482194930       64.0307846719
atom         5.8722000000        0.1290700000        4.2651600000 C         0.0000000000         0.0000000000        32.8767336057      -79.6781219260       69.1767428626
atom         5.2098900000        1.4197200000        7.5719800000 C         0.0000000000         0.0000000000       120.8883311722     -141.1799205734      -35.6738823527
atom         0.2189200000        4.2812000000        8.7413400000 C         0.0000000000         0.0000000000      -122.3762468230      -47.0283491471     -103.4207113634
atom         9.1928800000        2.5744900000        3.0928000000 C         0.0000000000         0.0000000000      -100.0407293191       48.0733732463      109.3313089387
atom         2.8536900000        3.1039500000        2.5273900000 C         0.0000000000         0.0000000000      -101.1847808074     -166.3896463801      -65.0344464333
atom         6.6735500000        6.3913500000        7.8210600000 C         0.0000000000         0.0000000000      -190.7471122903      -82.6289506641        9.0612908168
atom         0.2240700000        3.6543800000        0.2288700000 O         0.0000000000         0.0000000000      -135.3497014085     -192.3330713497      -58.6087833369
atom         7.4736900000        5.3957000000       10.5608400000 O         0.0000000000         0.0000000000       -14.9131095173     -189.4128252673      103.6324011926
atom         4.1595300000        6.4949500000        6.5766900000 O         0.0000000000         0.0000000000        -3.0419597508       44.2001681873        4.8350678832
atom         6.6719600000        2.8942700000        4.6157500000 O         0.0000000000         0.0000000000        90.7946934155     -109.7443078254       85.8633159860
atom         8.1456600000        7.3807100000        3.7073100000 O         0.0000000000         0.0000000000       267.0744368932      -25.0582688955       79.7284429062
atom         7.9889400000        2.8031800000        6.9858600000 O         0.0000000000         0.0000000000        26.2136912108       66.3161836137       58.0476511993
atom         5.3777400000        1.2893600000       10.2220400000 O         0.0000000000         0.0000000000        40.7284437806      -90.2023210791      -46.6281915159
atom         4.0074600000        7.5782600000        0.6720300000 O         0.0000000000         0.0000000000       -82.0775252191        5.6940054211      -60.1689216255
atom         8.3958600000        2.6392600000        2.1596400000 O         0.0000000000         0.0000000000       103.0502394950       -0.4089148094      152.4994766800
atom         0.9993600000        5.3048000000        9.1457400000 O         0.0000000000         0.0000000000       -71.6858249212     -142.1903744002      -23.9595787013
atom         5.9850200000        5.7548100000        6.9159100000 O         0.0000000000         0.0000000000       121.7098163022       54.1084744466       26.8428880484
atom         4.3033900000        3.0580800000        3.6943800000 O         0.0000000000         0.0000000000       -27.5682114138       59.7647133355      197.5534781689
atom         1.2545800000        7.0292300000        3.0155400000 O         0.0000000000         0.0000000000       -31.4810447347       85.5193103368       -2.9033237557
atom         0.7870400000        1.8306500000        6.1571900000 O         0.0000000000         0.0000000000       -92.2855822046      -18.7749617437      114.5099096822
atom         3.3666100000        1.5638100000        8.7722400000 O         0.0000000000         0.0000000000       -97.9745532842       39.7528965995      -51.0653503953
atom         4.4254400000        4.7076600000        0.9671400000 O         0.0000000000         0.0000000000       153.3654960501       77.1236822154      169.5154943444
atom         7.2014500000        0.9115500000        1.0651500000 O         0.0000000000         0.0000000000        49.4660483055       68.9311421668      115.9992976940
atom         1.5249400000        7.8740100000        9.7261400000 O         0.0000000000         0.0000000000      -236.2803429313       41.3547231072      -49.5563167757
atom         7.8795500000        7.7954700000        6.8857300000 O         0.0000000000         0.0000000000        52.3824820326      290.5545480538     -131.9506893122
atom         5.0774300000        0.9960400000        4.6290000000 O         0.0000000000         0.0000000000       -10.4433616375     -111.3286673313      -82.0600608257
atom         2.6437600000        5.0885200000        3.8178600000 O         0.0000000000         0.0000000000       -36.8139078578      -80.6358338941       34.8961510179
atom         7.7415500000        4.6455600000        5.9199900000 O         0.0000000000         0.0000000000        91.6702612562      -80.3630686510      -24.0687466301
atom         2.1543200000        3.5387600000        9.1762400000 O         0.0000000000         0.0000000000       -50.9639920657      -72.7746979839       56.1144685682
atom         4.5619300000        3.4084700000        9.6493400000 O         0.0000000000         0.0000000000       -80.9858655377      308.4214910100        2.6700913719
atom         8.5850300000        7.7118100000        1.0029200000 O         0.0000000000         0.0000000000       -13.5368553195      -80.5229747508      114.8752398093
atom         0.5741300000        1.2526700000        0.8946200000 O         0.0000000000         0.0000000000        29.9293516014     -176.9085632206      -34.2425320624
atom         6.2278000000        1.2107800000        6.8172000000 O         0.0000000000         0.0000000000      -116.1885384586       -3.4041121597        4.9234423338
atom         5.8662000000        7.4911800000        7.8822700000 O         0.0000000000         0.0000000000       142.7719173041      -64.6738020162        7.7454196196
atom         1.8401400000        3.0367200000        4.7555500000 O         0.0000000000         0.0000000000       120.8449152457      -71.1741999138      122.6555383555
atom         7.8501700000        4.8571200000        3.5095100000 O         0.0000000000         0.0000000000        68.4857344554       -6.3552005251     -149.5268626685
atom         2.8843600000        6.1612300000       10.1188400000 O         0.0000000000         0.0000000000        86.9329186322       76.6928577054       88.6157080822
atom         3.7364300000        3.4126800000        7.5028200000 O         0.0000000000         0.0000000000      -134.8106899781      -96.9430579952      -31.0542614041
atom         1.7143300000        0.0739900000        7.2620700000 O         0.0000000000         0.0000000000        14.6425477525     -216.9474014345      -15.4229594943
atom         5.6160600000        6.4911900000        2.4796600000 O         0.0000000000         0.0000000000       234.5715602514       13.9225033467      -21.5592056540
atom         3.7380000000        0.3127500000        2.7318400000 O         0.0000000000         0.0000000000       153.2494578045       94.3616443595      -77.1043434034
atom         5.7054200000        2.4367600000        8.3063600000 O         0.0000000000         0.0000000000       -19.0380335184      -33.5738360088      -54.7049936249
atom         6.8471800000        4.1249900000        8.3579800000 O         0.0000000000         0.0000000000       139.8348912074      -97.9457599477       33.2998424407
atom         2.1500700000        2.1038500000        2.7022900000 O         0.0000000000         0.0000000000       146.3648207240      169.8723149569      -20.7221506760
atom         6.5809900000        3.2911000000        0.2846900000 O         0.0000000000         0.0000000000        -3.8458093000      218.7486584940       18.8428439399
atom         2.5684600000        5.2148900000        7.7297700000 O         0.0000000000         0.0000000000        25.6570049502      -33.7714651051      -34.8421237150
atom         0.7702000000        3.8982600000        7.4602500000 O         0.0000000000         0.0000000000       -39.0085888249       58.8472527705       93.8612751816
atom         5.9734000000        4.0953500000        2.5631600000 O         0.0000000000         0.0000000000       -98.6342123727      -47.2695312927      -54.2585871360
atom         3.1019800000        6.2331500000        1.9293900000 O         0.0000000000         0.0000000000       -32.8417321652       31.8412076835     -140.7873442498
atom         5.9102900000        3.6697400000        6.6314800000 O         0.0000000000         0.0000000000         9.4522409037      -87.8341821012      -95.9104927024
atom         8.5964500000        6.9297600000        9.2197400000 O         0.0000000000         0.0000000000       155.4614222283      166.3595370902       38.4320877291
atom         2.5387000000        0.4992700000        4.9533000000 O         0.0000000000         0.0000000000      -166.0798086714       47.8529006554     -234.7553677171
atom         6.2079700000        0.1135900000        3.0026000000 O         0.0000000000         0.0000000000         3.5583004863       -4.4947197289       63.6052937641
atom         3.5682100000        7.7631500000        8.5066800000 O         0.0000000000         0.0000000000       111.2177144353     -273.4250963507      140.6981884360
atom         8.5736700000        3.0225900000        8.9887400000 N         0.0000000000         0.0000000000        72.4634835207       96.9037186449      186.7035891539
atom         0.8478600000        4.7436500000        2.4300900000 N         0.0000000000         0.0000000000       -60.7148754111       35.9587864359      -82.5583358576
atom         5.9440800000        4.9846500000        4.6500600000 N         0.0000000000         0.0000000000       -87.5837073406      250.9014977629      123.9486624139
atom         2.7716000000        4.7930200000        5.9106500000 N         0.0000000000         0.0000000000      -289.3538882921     -172.0376286184       42.6046373453
atom         0.5400900000        7.4157500000        5.2762100000 N         0.0000000000         0.0000000000        97.7998095003       12.4876473275      -59.8287217532
atom         7.8160500000        0.7365000000        5.1373600000 N         0.0000000000         0.0000000000       -41.5964219335      231.2391886037      100.0227641036
atom         2.8672600000        1.0018800000        0.4581700000 N         0.0000000000         0.0000000000       -55.3044235495       82.3619163774      -38.7962886607
atom         6.3030600000        7.6430100000       10.2808400000 N         0.0000000000         0.0000000000      -137.3589842713       73.6402182353     -128.0235167932
atom         7.6782300000        0.9690700000        8.8147400000 N         0.0000000000         0.0000000000        48.4201303365      -53.7314580568       61.6507659215
atom         1.7269500000        8.0168300000        2.0235200000 N         0.0000000000         0.0000000000      -317.6740632779       24.0454722078      -10.9620829568
atom         6.1114300000        7.5011500000        5.1748000000 N         0.0000000000         0.0000000000       -25.7529950528       -3.1992628518     -130.7911140303
atom         3.9789300000        0.8064600000        6.9125100000 N         0.0000000000         0.0000000000       119.3271124662      113.6890425584      -26.7745152056
atom         1.5163200000        5.3548400000        5.8099100000 N         0.0000000000         0.0000000000       126.8933154591      191.1804184970      -76.4170952475
atom         8.8273700000        2.9021100000        4.5148500000 N         0.0000000000         0.0000000000       -80.2360771508      -36.4267415025      -62.2004461327
atom         2.4893500000        3.2011900000        0.8156900000 N         0.0000000000         0.0000000000       -25.6401512975        5.0828297780       39.0880190206
atom         4.6358500000        5.2778900000        8.4849600000 N         0.0000000000         0.0000000000         1.0917696451       34.3328957317      166.1502817439
atom         0.8507900000        1.6450900000        8.5344400000 N         0.0000000000         0.0000000000       236.3824598235       21.8624785289      -51.6191514598
atom         7.8570900000        6.7114900000        1.7175100000 N         0.0000000000         0.0000000000       -40.4598561255       59.9832631351       -2.3062310556
atom         3.8187300000        7.0541800000        4.2330300000 N         0.0000000000         0.0000000000       -40.4383217914       46.6782972901     -173.0907004373
atom         3.5254600000        1.8896500000        6.1690400000 N         0.0000000000         0.0000000000       -12.4650358658        5.5227985149      133.9386452678
atom         9.1130800000        6.0414700000        7.0700000000 N         0.0000000000         0.0000000000         4.2353831198      -30.2516526672      118.9486911710
atom         0.5828100000        0.9542100000        3.8787400000 N         0.0000000000         0.0000000000        74.2401561358      -31.1419067774      -64.4125596156
atom         4.8736600000        2.3465400000        1.5453600000 N         0.0000000000         0.0000000000       112.6391951824     -234.1604120861      231.4323705703
atom         6.0364400000        5.6973100000        9.0748400000 N         0.0000000000         0.0000000000      -104.1723775819      111.5870865947      -13.7768166005
atom         8.6507000000        2.6896800000       10.3580400000 N         0.0000000000         0.0000000000       110.4074778941      243.0483987017     -112.0388466666
atom         1.4491300000        5.1021200000        1.2793900000 N         0.0000000000         0.0000000000       -25.1058930257        6.0602600099      -44.8259343037
atom         4.6370100000        5.1641100000        4.9281400000 N         0.0000000000         0.0000000000       216.6159658237     -115.5033651158      -22.4390602961
atom         4.2316700000        3.5481800000        5.0193200000 N         0.0000000000         0.0000000000        43.6870448846      -70.0157690006     -154.6377991547
atom         0.2238700000        7.1563700000        4.0897000000 N         0.0000000000         0.0000000000      -133.8311862711       51.1497760351      -21.0048307625
atom         9.0652800000        1.0909600000        7.3475300000 N         0.0000000000         0.0000000000        23.0685078283       58.7509000104     -111.2737312625
atom         3.4084100000        2.1096400000        0.3170500000 N         0.0000000000         0.0000000000      -111.1165993070       28.2935249053       13.2346447063
atom         5.5741600000        6.4331800000       10.1781400000 N         0.0000000000         0.0000000000        95.7323232111       50.9005967604     -136.2671921634
atom         8.4096500000        0.7064000000        9.6979400000 N         0.0000000000         0.0000000000         4.9577874242      -52.2140311729     -112.9596430958
atom         0.8394600000        6.1254700000        0.7901800000 N         0.0000000000         0.0000000000        58.6342845583      -85.1542084484        5.5397205338
atom         8.0446600000        0.4616400000        6.4252800000 N         0.0000000000         0.0000000000       -16.6939684225     -198.4321143400      -13.4644097896
atom         4.1343100000        8.2365600000        6.3250000000 N         0.0000000000         0.0000000000       -37.2656261632       28.7136576084       48.9921707541
atom         0.5314000000        5.0988200000        4.7412100000 N         0.0000000000         0.0000000000        62.0670664655     -139.1302483532      179.0530831087
atom         9.1817800000        4.0157100000        5.3304500000 N         0.0000000000         0.0000000000       -83.8438242138       35.3884660107     -114.7914044675
atom         2.3758500000        4.4662700000        0.4321500000 N         0.0000000000         0.0000000000      -110.1426969249     -119.9138861449      110.4546268999
atom         3.9576500000        4.5884000000        9.4756400000 N         0.0000000000         0.0000000000       188.9785215587     -206.6573937796     -110.4054632696
atom         1.9602200000        1.8695700000        7.9893700000 N         0.0000000000         0.0000000000        16.3776420086       98.6564180018        3.5344754656
atom         6.5740400000        6.9297300000        1.5990600000 N         0.0000000000         0.0000000000        26.8994001120      -62.6810509945      120.9552850297
atom         3.6861800000        7.3482300000        3.0839000000 N         0.0000000000         0.0000000000        47.7332565829      -12.1311941015       71.2144477609
atom         4.7055400000        2.6488700000        5.7553500000 N         0.0000000000         0.0000000000       -87.9910962444       69.7850503586       27.7304958876
atom         8.0872000000        5.6671000000        7.5518100000 N         0.0000000000         0.0000000000       -40.4629845229      -52.6884268085      183.0068658950
atom         1.7123400000        0.4898600000        3.8900500000 N         0.0000000000         0.0000000000        -9.3775765134       59.9666987394      166.4713428355
atom         5.9091100000        2.4911300000        2.4393500000 N         0.0000000000         0.0000000000      -167.7263603013       73.8246989318     -118.8215035014
atom         3.9378900000        6.6615200000        8.9684400000 N         0.0000000000         0.0000000000       -97.9714819469      195.3831373516      -31.2557361691
energy    -30446.0625523244
charge 0
end
begin
comment generated by PY
lattice         9.1817142600         0.0000000000         0.0000000000
lattice         0.0000000000         8.5063517400         0.0000000000
lattice         0.0000000000         0.0000000000        10.5645994200
atom         4.6687300000        4.9046200000        6.6567400000 H         0.0000000000         0.0000000000        55.4477689222       -8.9765010080      -52.3467831069
atom         6.5759500000        2.5573500000        9.6990000000 H         0.0000000000         0.0000000000        92.7925201904       22.5270477453      -99.7010910970
atom         2.0240000000        5.0091100000        2.9790100000 H         0.0000000000         0.0000000000        -4.0382347579      -41.6539949038       33.4749543913
atom         6.3399000000        6.1796300000        3.3435700000 H         0.0000000000         0.0000000000       -74.5438898366       -1.0607197283       -3.3876518971