begin
comment generated by PY
lattice        13.6354229000         0.0000000000         0.0000000000
lattice         0.0000000000        12.6324671000         0.0000000000
lattice         0.0000000000         0.0000000000        15.6890943000
atom         9.5092200000        6.7995400000       11.6854500000 H         0.0000000000         0.0000000000        -7.2547543440      102.7913441922      106.9123973599
atom        10.3371400000        3.1016000000       15.0217500000 H         0.0000000000         0.0000000000        51.9098359148     -115.7761191492       15.8507609055
atom         3.6424100000        9.8483600000        0.3861000000 H         0.0000000000         0.0000000000      -127.2892251920       22.9444276596      -21.0061906608
atom         9.7446600000        8.6754000000        6.5264100000 H         0.0000000000         0.0000000000       -35.0000107677      118.5373321091        8.5249321036
atom         3.0723900000        2.7180800000        8.5676700000 H         0.0000000000         0.0000000000       106.6103471888      -74.2601446059       34.1738960743
atom         3.4216000000        8.8835300000        7.9497000000 H         0.0000000000         0.0000000000      -135.8552099886      -16.5294243927       32.4711208745
atom        11.2453100000        2.1254800000        6.1907100000 H         0.0000000000         0.0000000000        39.9737474003       82.5333619630       60.1685755881
atom         3.8254900000        2.0509300000        2.2331500000 H         0.0000000000         0.0000000000        69.0221147642      102.4890756629      -27.1720606835
atom        10.1718400000        8.7296500000       15.0526500000 H         0.0000000000         0.0000000000      -105.8664691350      -57.7449258008      -14.9287911640
atom        10.0833400000        1.4058400000       15.6555200000 H         0.0000000000         0.0000000000        75.7001985950       84.3386433507      -57.2447457870
atom         2.6057900000       10.7720100000       15.0402500000 H         0.0000000000         0.0000000000       -21.1416318985      -85.8347305199      100.0474974752
atom         9.4576900000       10.2952600000        7.3776900000 H         0.0000000000         0.0000000000       -20.5576182538      -74.7977341713      -96.4414565143
atom         4.1581300000        1.4453800000        7.9863900000 H         0.0000000000         0.0000000000       -14.0315154142       74.8649611638       87.6812815194
atom         2.0015200000        7.8606100000        7.5533300000 H         0.0000000000         0.0000000000        32.5749377104      106.2266461862       69.8266257599
atom        11.9184100000        2.1858000000        7.7413500000 H         0.0000000000         0.0000000000       -22.1436851104       90.6426525286     -109.7559556366
atom         3.8105800000        3.3213600000        0.9850800000 H         0.0000000000         0.0000000000        76.6741524185      -31.1643080694      129.9763579383
atom         8.7851600000        7.7282300000        0.0880600000 H         0.0000000000         0.0000000000        59.4410770216       66.6777821180     -110.7480431770
atom         0.2744300000        2.8930800000       15.5843500000 H         0.0000000000         0.0000000000       -54.3741656636     -105.9559356933      -20.4065498407
atom         1.9130900000        7.4467600000        1.6510700000 H         0.0000000000         0.0000000000       -78.9448844266       82.2907629761      -62.9144774824
atom         7.8115300000        8.0160400000        4.6151600000 H         0.0000000000         0.0000000000        -2.6721125710      130.6853773772        8.4886882824
atom         4.7737300000        4.6506700000       10.2662400000 H         0.0000000000         0.0000000000        55.4304459621     -101.1553031443      -35.5076776430
atom         1.9306800000       11.2632300000        9.4309000000 H         0.0000000000         0.0000000000      -108.2713948518      -53.4882569068      -59.5555239364
atom        12.4278100000        3.7437000000        4.2258200000 H         0.0000000000         0.0000000000        30.7003700132       62.4968868296      111.0724753887
atom         6.4676300000        1.7403300000        3.5271000000 H         0.0000000000         0.0000000000        11.5756165253      127.6667749999      -44.4420765254
atom         9.1942700000       10.3226100000       13.0050500000 H         0.0000000000         0.0000000000      -100.3288017570      -75.8885981089        9.7886932530
atom         0.1805200000        1.0584800000        0.0376300000 H         0.0000000000         0.0000000000       -41.4495440116      120.8442941136      -46.5598387289
atom         0.5791600000        7.2446800000        0.6533500000 H         0.0000000000         0.0000000000        59.5528435429      120.7175434681       43.4787419589
atom         6.5972700000        9.1339500000        4.5048600000 H         0.0000000000         0.0000000000       119.8721767867       16.7470012455       40.7410283631
atom         6.4256400000        4.1989800000       10.0133000000 H         0.0000000000         0.0000000000      -126.9620684188      -62.6304699236        8.4123947335
atom         0.4509500000       11.6749300000        8.4602300000 H         0.0000000000         0.0000000000        66.3347600854     -113.5641545764       48.8354753919
atom         0.1026200000        4.7067500000        4.9569200000 H         0.0000000000         0.0000000000      -123.8518998402      -53.8783725765       30.4260270131
atom         7.6554700000        2.8951900000        2.7409100000 H         0.0000000000         0.0000000000      -135.2874129351       -3.0928163051       55.7282202554
atom         7.4093300000       10.2902000000       12.8674500000 H         0.0000000000         0.0000000000       108.4877557197      -80.4712369040       34.1669878276
atom        11.8566100000        3.3711100000       13.0862500000 H         0.0000000000         0.0000000000         9.6317976922     -143.1400896607       16.4842729461
atom         1.7381400000       10.1933400000        3.3883300000 H         0.0000000000         0.0000000000       -75.9400287446       -0.8081062118     -106.8988017779
atom        10.2864900000        9.0851700000        3.8751300000 H         0.0000000000         0.0000000000       -53.5644492130      103.1723211280       27.3498179851
atom         3.2328700000        2.8186000000       11.3210500000 H         0.0000000000         0.0000000000        81.5080175052      -83.9028425428       -6.8754278667
atom         0.9622000000        8.8177000000       11.4098500000 H         0.0000000000         0.0000000000       -19.8778055884      -21.8205537033     -141.2658912013
atom        10.0065400000        4.2366100000        5.3645300000 H         0.0000000000         0.0000000000        68.3677359797       65.6594440751       70.8119713257
atom         4.3925600000        3.0384300000        4.8550300000 H         0.0000000000         0.0000000000        38.4512236496       85.1932612483      -58.7698426017
atom        10.4168000000        8.2644900000       12.2646500000 H         0.0000000000         0.0000000000      -105.1955263783      -75.4454196117       24.8901650550
atom        12.0672100000        1.8796500000       12.1040500000 H         0.0000000000         0.0000000000         4.0788250429       32.5009504641      129.9218884459
atom         0.3869500000       11.0763300000        2.5910200000 H         0.0000000000         0.0000000000        86.8167758422     -104.1285135944      -19.4405149245
atom        10.2592000000       10.7836100000        3.3741000000 H         0.0000000000         0.0000000000       -54.9066182817      -93.1280171488      105.2621090984
atom         4.1047600000        1.3989300000       12.1030500000 H         0.0000000000         0.0000000000       -13.1910911136       87.1815847323     -103.8287470696
atom         0.0569400000        7.8194100000       10.0714700000 H         0.0000000000         0.0000000000        85.8131128202      111.0697935642       24.9109718513
atom        10.0429500000        5.6839200000        6.4524000000 H         0.0000000000         0.0000000000        66.6352293848     -114.8167952726      -46.1037865895
atom         4.5253700000        4.7646300000        4.8898900000 H         0.0000000000         0.0000000000        19.2357386706     -102.9578673927      -79.7576388021
atom        10.7290200000        2.0935200000       15.1397500000 C         0.0000000000         0.0000000000       111.1477560468      -90.6633588763      -58.4817935028
atom         2.5821800000       10.0826700000        0.1860200000 C         0.0000000000         0.0000000000       -60.5539133570      -51.3673003073      106.1958308640
atom         9.3558600000        9.6790500000        6.5193900000 C         0.0000000000         0.0000000000       -32.1261450106        3.5520119061     -154.6249017493
atom         3.9803700000        2.1161300000        8.7733100000 C         0.0000000000         0.0000000000        61.0252543459        9.4313872451       70.8996321933
atom         2.3306700000        8.7292100000        8.1463600000 C         0.0000000000         0.0000000000       -54.7620513955       72.1412255617       65.0503465588
atom        11.6900100000        2.8112900000        6.8431500000 C         0.0000000000         0.0000000000        36.6320955426       77.1371176426       15.1767176226
atom         4.3181400000        2.9834700000        1.9579000000 C         0.0000000000         0.0000000000        71.4134459685       66.5759243657       77.6518416634
atom         9.2297300000        8.2370000000       14.8861500000 C         0.0000000000         0.0000000000       -67.7326143046        4.4220869064      -77.0747566869
atom        13.3802100000        2.0013100000       15.3408500000 C         0.0000000000         0.0000000000      -102.1131535078       -2.0585284141      -69.9890029005
atom         1.1743000000        8.0459600000        1.0851300000 C         0.0000000000         0.0000000000        47.6079895610      132.9412752008        6.2248206293
atom         7.6316000000        9.0925700000        4.7426800000 C         0.0000000000         0.0000000000        90.6526718008       63.7146071276       35.1609474434
atom         5.3888500000        3.7997000000       10.0717300000 C         0.0000000000         0.0000000000        12.2561290624     -112.2529002604        7.1239847808
atom         1.0375100000       10.8421300000        8.8791900000 C         0.0000000000         0.0000000000         8.6175072777     -128.8414296154       -1.6263513316
atom        12.7469100000        4.2659300000        5.1440100000 C         0.0000000000         0.0000000000       -34.7027201849       -2.2338129642       99.4351199689
atom         6.6035100000        2.7722800000        3.1340700000 C         0.0000000000         0.0000000000      -106.1910154465       58.8884147946      -47.4192089687
atom         8.3063500000        9.7065800000       13.1045500000 C         0.0000000000         0.0000000000        16.5011144762     -113.4405325109       33.4599672493
atom        12.0264100000        2.2274600000       13.1325500000 C         0.0000000000         0.0000000000        13.7056520099      -56.9536709585       90.9396942344
atom         1.1336200000       10.2816500000        2.4664500000 C         0.0000000000         0.0000000000        46.5725748264      -36.3509269834     -138.3507277898
atom         9.8483100000       10.0234500000        4.1087500000 C         0.0000000000         0.0000000000       -67.4862877135       23.0254760439       46.1407566968
atom         4.0126700000        2.1063300000       11.2714700000 C         0.0000000000         0.0000000000       118.1899796221       -4.7147829457      -90.5197991332
atom         0.7787400000        8.6844200000       10.2791700000 C         0.0000000000         0.0000000000        53.5960746620       69.8158045838      -75.0802701727
atom        10.5686000000        4.7775500000        6.0808700000 C         0.0000000000         0.0000000000        68.8064534836       -7.4480435457       69.1540054708
atom         4.7039500000        3.8737900000        4.3061700000 C         0.0000000000         0.0000000000        60.3254995610        1.9049645867     -109.8812357501
atom         9.5188400000        7.6305700000       12.4513500000 C         0.0000000000         0.0000000000       -65.1272849953       75.9963015576       71.3965533339
atom        13.1832100000        2.5986600000        2.0903500000 O         0.0000000000         0.0000000000      -271.9891822178      -83.7723259191     -124.5856712941
atom         0.7224800000        7.4962000000       14.2972500000 O         0.0000000000         0.0000000000       117.8669622797      288.6746809948       50.1458897229
atom         5.8163000000       10.0994800000        6.4009100000 O         0.0000000000         0.0000000000       301.5963284158       11.9628743266      114.7650870991
atom         7.2494900000        3.3282400000        8.1926200000 O         0.0000000000         0.0000000000      -253.6412420871     -147.3143740998      -61.7237540058
atom         1.5195400000       11.7166300000        6.3706600000 O         0.0000000000         0.0000000000       103.5906619990     -262.6278503374       61.1505136478
atom         0.4361900000        3.0906600000        8.1646500000 O         0.0000000000         0.0000000000        26.2010311374       52.7876133893     -303.7873463970
atom         7.5754500000        3.5489000000        0.6757300000 O         0.0000000000         0.0000000000      -294.3415116845       44.0403360846       19.1077700287
atom         6.2508800000       10.1299000000       14.7743500000 O         0.0000000000         0.0000000000       176.2763013040     -212.4241493168       98.2890201388
atom        10.9759900000        2.1340300000        2.1530300000 O         0.0000000000         0.0000000000       255.1551257923       35.9501554858     -142.1974629767
atom         1.3012800000        9.5839200000       13.6149500000 O         0.0000000000         0.0000000000       -22.1832561233     -230.9206079350      210.6232928716
atom         7.4356100000       10.7319200000        7.8715300000 O         0.0000000000         0.0000000000      -105.5043553965     -145.5024709508     -255.0293411310
atom         5.9131700000        1.9852000000        6.9947900000 O         0.0000000000         0.0000000000        67.5378994271      180.5095393728      236.0056114834
atom         2.6671700000        9.9088900000        5.8789700000 O         0.0000000000         0.0000000000      -163.0635673115      159.0534442338      167.8131098749
atom         1.5077700000        3.5740000000        6.2544500000 O         0.0000000000         0.0000000000      -245.8317335991      -58.2701987927      169.1973521322
atom         5.5204700000        4.2267700000        0.0650500000 O         0.0000000000         0.0000000000       226.5272815539     -128.2753756616      164.4301375335
atom         6.8026600000        8.3827400000        0.3722800000 O         0.0000000000         0.0000000000        47.6893900405      219.6001233951     -217.6717695576
atom        10.4250200000       12.1108300000       14.6605500000 O         0.0000000000         0.0000000000       116.7361862922      163.1122766653     -211.3245422725
atom         3.0738300000       12.5813300000        0.6155000000 O         0.0000000000         0.0000000000      -207.7630890889     -111.2255051957      198.8287016385
atom        10.3261600000       12.1649300000        6.8530900000 O         0.0000000000         0.0000000000        60.2264219068      -94.8207926406     -299.8767434700
atom         4.6691300000       12.2036300000        8.7803900000 O         0.0000000000         0.0000000000       -98.2871812447      111.8094203935      272.1514512840
atom         3.8416500000        7.1554700000        9.4488200000 O         0.0000000000         0.0000000000      -254.6379352261       35.9937689658      147.5467434696
atom        11.3014100000        3.7733700000        9.3501400000 O         0.0000000000         0.0000000000      -160.8054676089      179.5252820479     -200.7207148545
atom         3.0779900000        5.3219700000        1.6226600000 O         0.0000000000         0.0000000000        45.1865848772      -56.6721030461      267.5255287014
atom        10.1902000000        5.8111300000       15.4193500000 O         0.0000000000         0.0000000000        44.1914504221       63.4226770721     -299.3156636013
atom        11.3623100000       12.2699300000       12.6532500000 O         0.0000000000         0.0000000000      -106.0243219078      127.4606630071      273.2052936024
atom         1.5750900000        0.1395000000        2.3013900000 O         0.0000000000         0.0000000000       157.5101418443     -158.4642454467     -203.9229412081
atom        10.9167000000       12.3992300000        4.6575000000 O         0.0000000000         0.0000000000       -94.1751108149     -160.6793534216      266.7618282930
atom         4.1841000000       11.9951300000       10.9525900000 O         0.0000000000         0.0000000000        24.9140170309      157.0359399176     -250.9161585070
atom         2.3547700000        6.8761400000       11.1027100000 O         0.0000000000         0.0000000000       108.4095500887      106.0150902777     -250.3797289453
atom         9.9460700000        5.4637000000        8.6773300000 O         0.0000000000         0.0000000000       191.0722961054     -255.2340684348      -39.9892802080
atom         2.9727800000        5.8364400000        3.7117700000 O         0.0000000000         0.0000000000        81.3429423455     -176.5904444938     -186.9700794981
atom        10.8881700000        5.5887000000       13.2518500000 O         0.0000000000         0.0000000000      -136.6518808244      121.2271506438      234.5538397169
atom         0.7451400000        2.2712300000       11.9382500000 O         0.0000000000         0.0000000000        44.1202945671      -44.3818168962      296.5820993970
atom        12.1936100000        9.7987500000        2.5648700000 O         0.0000000000         0.0000000000       136.9638346660     -170.4789056403     -179.8424006393
atom         8.5781100000       12.0837300000        2.9205300000 O         0.0000000000         0.0000000000      -167.7409086357     -241.8315263322      123.0123911238
atom         6.3552800000        1.4089200000       12.4515500000 O         0.0000000000         0.0000000000        53.4180325795      220.5043413161     -189.8760536757
atom        11.7871100000        9.2514700000       10.3782000000 O         0.0000000000         0.0000000000       169.3682841562      226.1858321102     -117.1305823190
atom        11.5082100000        7.2421000000        6.4959800000 O         0.0000000000         0.0000000000       220.0865349346     -201.1689121203      -74.2009532257
atom         6.1514800000        6.1107000000        4.2055900000 O         0.0000000000         0.0000000000       160.7659581284     -259.3174132428      -75.4036041858
atom         7.1411700000        6.7184100000       11.8319500000 O         0.0000000000         0.0000000000         5.1386156104      312.1695694319       16.1303658524
atom         1.8767900000        1.9490500000       13.8768500000 O         0.0000000000         0.0000000000      -231.4369562348       35.8049060988     -180.5990441887
atom        12.3059100000        8.1949700000        1.0501100000 O         0.0000000000         0.0000000000       100.6604259099      207.1304240416      182.2281654922
atom         6.6094300000       11.3167300000        3.6327300000 O         0.0000000000         0.0000000000       308.6184429489      -48.0964968603      -54.8358028481
atom         7.5753300000        2.7544800000       11.1615900000 O         0.0000000000         0.0000000000      -266.4394442723     -104.3396333671      126.8291691504
atom        12.1563100000       11.2959300000        9.5111500000 O         0.0000000000         0.0000000000        50.0602755490     -278.1225753922       95.6897483945
atom        13.5917100000        6.5090300000        6.1237000000 O         0.0000000000         0.0000000000      -294.1908826050      -22.0895886849       13.8490372716
atom         7.9923600000        4.9519300000        3.6768300000 O         0.0000000000         0.0000000000      -291.9294242267       42.8091455078       52.8711200168
atom         6.2595400000        8.7952900000       11.7384500000 O         0.0000000000         0.0000000000       215.5218741917     -219.1506056941       43.4203069934
atom        12.0615100000        2.0553700000        0.1950200000 N         0.0000000000         0.0000000000        10.0016199763       26.7299263708      -12.3979161078
atom         1.8234700000        8.8598500000        0.0314700000 N         0.0000000000         0.0000000000       -54.3759565117       20.6301328233        0.9907997768
atom         7.9906000000        9.4545600000        6.1013300000 N         0.0000000000         0.0000000000        24.2282329022       70.5509086869      -46.8879219091
atom         5.1314500000        3.0803100000        8.7893500000 N         0.0000000000         0.0000000000       -31.2833927030      -77.7626548557       95.6182738845
atom         1.5791300000        9.9638000000        7.8137800000 N         0.0000000000         0.0000000000        57.8323998185       22.9578647188       58.0530308187
atom        12.8855100000        3.2990300000        6.2262500000 N         0.0000000000         0.0000000000       -65.4053285608       67.9640270464        3.3063047944
atom         5.7520500000        2.8855100000        1.8779300000 N         0.0000000000         0.0000000000       -45.3664871758       57.8976401479       65.6567193729
atom         8.2919900000        9.2409700000       14.5146500000 N         0.0000000000         0.0000000000        14.1622447520      -87.5643742099      -83.1059696927
atom        10.9848300000        1.5341000000       13.8770500000 N         0.0000000000         0.0000000000       108.6173984501       71.5180682524       71.8385083942
atom         2.0518700000       10.7548200000        1.4204200000 N         0.0000000000         0.0000000000       -40.9863071910       29.8450170690      -22.4923725141
atom        10.1726500000       10.3354800000        5.4511600000 N         0.0000000000         0.0000000000      -127.8437245572       11.4247252985      -41.7543041600
atom         3.8427200000        1.3134700000        9.9763100000 N         0.0000000000         0.0000000000        86.5724292019      112.2803520834      -21.9849257478
atom         2.0649200000        8.4841000000        9.6146200000 N         0.0000000000         0.0000000000       -61.2615817381      -49.5965263436      -65.7780540412
atom        10.6857700000        3.8709900000        7.1816100000 N         0.0000000000         0.0000000000       131.9380680746       46.3135134253      -98.7523373243
atom         4.0216600000        3.9356400000        3.0753300000 N         0.0000000000         0.0000000000        43.4452935977        7.2351081903        9.0080807452
atom         9.4619300000        7.2057100000       13.8495500000 N         0.0000000000         0.0000000000        57.6304835427       73.2987207900      -42.7186310533
atom        13.3045100000        1.9548000000       13.8741500000 N         0.0000000000         0.0000000000       -46.0421507089       47.7539269822       11.4335568927
atom         0.5418600000        9.0182000000        1.8979800000 N         0.0000000000         0.0000000000         3.9135935161       26.1975531649      -29.2441430611
atom         8.4454700000        9.9313200000        3.8388800000 N         0.0000000000         0.0000000000        29.4521669930       17.4002923813      116.0622145847
atom         5.2428100000        2.8978900000       11.1886500000 N         0.0000000000         0.0000000000       -25.0790826007      -13.9390666658     -119.8433376260
atom         0.2522000000        9.9589800000        9.7419800000 N         0.0000000000         0.0000000000        38.0861893913      -41.3114121270      -29.8366946373
atom        11.8274100000        5.2500300000        5.5155200000 N         0.0000000000         0.0000000000        12.8730975904     -114.2095357135       87.4421120025
atom         6.1079200000        3.7611700000        4.1029500000 N         0.0000000000         0.0000000000       -55.6318893630        1.0434899898     -124.8025555547
atom         8.4183300000        8.5778700000       12.2472500000 N         0.0000000000         0.0000000000        23.9272919473      -40.7705046771      117.9105288440
atom        12.0415100000        2.2704000000        1.5710800000 N         0.0000000000         0.0000000000        16.9962334958       21.5491265098       77.4783598090
atom         1.2119900000        8.6327100000       14.4887500000 N         0.0000000000         0.0000000000       -15.9959198752      -21.8841308042     -113.7330530905
atom         7.0282400000       10.1566200000        6.8509700000 N         0.0000000000         0.0000000000       -84.3925922799       57.2454267558       48.4889389228
atom         6.1803100000        2.7375900000        7.9584800000 N         0.0000000000         0.0000000000        71.5951737833       14.2343488779      -68.7932928407
atom         1.9657700000       10.6005600000        6.6032300000 N         0.0000000000         0.0000000000        17.0039041683       14.5368361649      -72.5938308396
atom         0.5140900000        3.3285800000        6.9363600000 N         0.0000000000         0.0000000000        60.6458467694        6.7411464966       59.4640113870
atom         6.3671100000        3.6787700000        0.7730700000 N         0.0000000000         0.0000000000        -2.2747483801        4.3544089356      -66.2615848571
atom         6.9947800000        9.2585800000       15.1619500000 N         0.0000000000         0.0000000000       -75.0898105653      -20.6305412755       39.4610476565
atom        10.9240900000        0.1194100000       13.7565500000 N         0.0000000000         0.0000000000         4.6556113366     -115.4539310824      -44.8721029020
atom         2.2256600000       12.1207300000        1.4466600000 N         0.0000000000         0.0000000000        28.5223514768       82.1325302795       -2.3968510256
atom        10.5229400000       11.7662300000        5.6697500000 N         0.0000000000         0.0000000000       -20.4420145784       97.5876818678       14.1582299391
atom         4.2806200000        0.0132900000        9.9051800000 N         0.0000000000         0.0000000000        24.0099941998     -112.4399018180       -5.8272277842
atom         2.7927400000        7.3685400000       10.0635200000 N         0.0000000000         0.0000000000        52.1048532047       -4.0248476304       53.8978305654
atom        10.6793600000        4.4542900000        8.5198800000 N         0.0000000000         0.0000000000       -16.2504275419        3.9491424371       90.8873477117
atom         3.3022300000        5.1003400000        2.8173600000 N         0.0000000000         0.0000000000       -31.1982377006       88.2568516616      -62.4379243435
atom        10.2985200000        6.1224600000       14.1934500000 N         0.0000000000         0.0000000000       -18.7298506568      -42.8261483572       29.4919074662
atom         0.8798200000        2.0848500000       13.1607500000 N         0.0000000000         0.0000000000        30.5345307493       -5.0103838816      -13.0248540866
atom        12.7786100000        9.0453900000        1.8196300000 N         0.0000000000         0.0000000000       -72.4094824873      -43.1155975236       -0.8452726433
atom         7.8542500000       11.1742300000        3.4176600000 N         0.0000000000         0.0000000000       -75.2288236085      135.7585449177       -1.1494169551
atom         6.5300600000        2.3160000000       11.6476500000 N         0.0000000000         0.0000000000        59.8453208219      -72.9610532737       13.8640455293
atom        12.4622100000       10.1629200000        9.8936000000 N         0.0000000000         0.0000000000       -41.8963385163       46.5426896365       -9.7525977476
atom        12.3759100000        6.4023000000        6.1492400000 N         0.0000000000         0.0000000000        10.2465160563       89.8397859497       -9.3822613889
atom         6.8016100000        5.0754300000        3.9200000000 N         0.0000000000         0.0000000000        57.2220170287       70.1803261874       40.0191922619
atom         7.1625600000        7.9582900000       11.9153500000 N         0.0000000000         0.0000000000       -85.6851682668      -16.5801357242      -14.0128871706
energy    -35181.5664433943
charge 0
end
begin
comment generated by PY
lattice        12.0594629000         0.0000000000         0.0000000000
lattice         0.0000000000        11.1724271000         0.0000000000
lattice         0.0000000000         0.0000000000        13.8757743000
atom         7.3534600000        5.5869200000       11.4556900000 H         0.0000000000         0.0000000000        29.3892610176      118.5673579171      -16.4899478163
atom         8.4573400000        2.2268300000       11.9459900000 H         0.0000000000         0.0000000000       121.6505161107       -1.1829526371       70.0827307650
atom         3.4821800000        9.0012900000        2.0289600000 H         0.0000000000         0.0000000000       -89.9257631212       37.3851352757      -78.4885793468
atom         9.8566100000        8.5811800000        5.5885500000 H         0.0000000000         0.0000000000       -83.0302437961       29.1095797655       99.0373478072