begin
comment generated by PY
lattice        11.3514800000         0.0000000000         0.0000000000
lattice         0.0000000000        10.5165200000         0.0000000000
lattice         0.0000000000         0.0000000000        13.0611600000
atom         7.0975200000        4.7372700000       10.3180800000 H         0.0000000000         0.0000000000        66.6785438970      108.5825986030       53.1984263268
atom         7.5197800000        1.7521500000       11.4926800000 H         0.0000000000         0.0000000000        97.5361727883      -19.1276375719       83.9886628559
atom         3.9054500000        9.1388300000        1.2497500000 H         0.0000000000         0.0000000000      -109.1849227569       13.4112568994      -65.6625776663
atom         9.3348500000        8.8210700000        4.8686700000 H         0.0000000000         0.0000000000       -77.9046957659       21.8618608808       97.3791708374
atom         1.8678000000        2.0604400000        7.8322100000 H         0.0000000000         0.0000000000       117.1427115679       -1.8257702437      -66.8100601025
atom         3.9514600000        7.0398900000        7.7748600000 H         0.0000000000         0.0000000000       -98.9933250477      -27.9626976155      -61.4330037205
atom         7.6246000000        3.2264900000        5.1469300000 H         0.0000000000         0.0000000000        99.3937505443       45.5816208727       88.8701773747
atom         1.7642600000        3.4375000000        1.3449200000 H         0.0000000000         0.0000000000       118.2675060091       -4.4869334777      -66.1809457674
atom         9.6402800000        7.0640200000       12.1342800000 H         0.0000000000         0.0000000000      -131.2666139166       -4.3850646869       52.0818719595
atom         7.5687900000        1.4850400000        0.1218000000 H         0.0000000000         0.0000000000       105.1255504757       20.2556627571     -106.0034948547
atom         3.1450300000        9.4496900000       12.6524800000 H         0.0000000000         0.0000000000       -26.9903793631      -30.1604781310      140.4024900688
atom         9.2456600000        9.1961700000        6.6005700000 H         0.0000000000         0.0000000000       -82.2139082189      -29.9444914102     -106.5164594877
atom         2.1863000000        1.9769000000        6.2181400000 H         0.0000000000         0.0000000000        85.9260549486      -15.5876089218      107.3819410106
atom         3.1924900000        6.8713500000        6.1692700000 H         0.0000000000         0.0000000000       -20.4127019830      -10.9294381766      134.8549126219
atom         8.1399800000        3.5616500000        6.9823800000 H         0.0000000000         0.0000000000        40.5436253893       -8.4265490414     -142.5846022712
atom         2.1307400000        3.5221700000       12.7714800000 H         0.0000000000         0.0000000000        80.2497063481        0.1594853765      112.4146123800
atom         8.5624300000        7.1566300000        0.5823800000 H         0.0000000000         0.0000000000        -3.3291103397      -39.4869903894     -137.6156144062
atom         9.3611400000        3.2337300000       10.1941800000 H         0.0000000000         0.0000000000        57.2850339574      -62.5299589844       95.7452134038
atom         2.2180800000        7.3256800000        3.0601700000 H         0.0000000000         0.0000000000       -42.2942712671       34.4874355540     -102.1318434511
atom         8.0934300000        7.3876400000        3.6283000000 H         0.0000000000         0.0000000000       -97.6441096150       28.1080087675       93.7294382164
atom         3.8966300000        3.4479100000        9.2891400000 H         0.0000000000         0.0000000000        65.5225149518      -48.5201793540     -106.5949228628
atom         2.7553300000        8.3052300000        9.6361800000 H         0.0000000000         0.0000000000      -114.7384932153      -47.3363942970      -76.2746585426
atom         9.2039300000        2.1899600000        3.6263000000 H         0.0000000000         0.0000000000        81.6183044932        7.7109421357      101.2165660088
atom         3.7641800000        1.9774800000        2.8760700000 H         0.0000000000         0.0000000000        59.8517029331       51.8460193933      -94.5761204013
atom         8.3774100000        8.1942000000       10.0428800000 H         0.0000000000         0.0000000000      -113.2931506943      -33.3682106962       67.7368248713
atom        10.7585400000        3.5543000000       11.0244800000 H         0.0000000000         0.0000000000       -84.2166791055     -104.7843752567        5.7215103122
atom         0.8686800000        6.8464400000        2.0925600000 H         0.0000000000         0.0000000000        92.7785184948       85.3236160434        5.4620498192
atom         6.4492900000        6.9722400000        4.3496300000 H         0.0000000000         0.0000000000        92.1294009246       77.0869204049       -6.6787125490
atom         5.3825500000        3.6767300000        8.3066400000 H         0.0000000000         0.0000000000      -110.1635954277      -83.3899447531       13.7472432958
atom         1.0459200000        8.8095900000        9.1542100000 H         0.0000000000         0.0000000000        93.8387525599     -106.1786388469      -15.9076551037
atom        10.6349400000        1.3262800000        4.3849200000 H         0.0000000000         0.0000000000       -78.5184404927      120.5457241661        2.9602827321
atom         5.1122000000        1.5821100000        1.8852300000 H         0.0000000000         0.0000000000       -80.3278209568      105.0007861858       21.1134650294
atom         6.7897100000        8.8483700000       10.0943800000 H         0.0000000000         0.0000000000        66.9768309550      -91.2266421915       87.1100053304
atom         9.0620600000        0.0078300000        9.8451200000 H         0.0000000000         0.0000000000        79.7129625815       32.8620272425      106.4092523692
atom         2.5500300000        9.9517600000        3.3767800000 H         0.0000000000         0.0000000000       -93.5594112185        1.9046930264      -95.7795655492
atom         8.2761900000       10.3332900000        3.2096000000 H         0.0000000000         0.0000000000       -97.8342857443      -46.5400048601       92.8493266009
atom         3.3019700000        0.7388100000        9.7190600000 H         0.0000000000         0.0000000000        77.3218452470      -24.1454117788     -113.3571706613
atom         3.1437200000        5.7496100000        9.6778400000 H         0.0000000000         0.0000000000      -116.4878504312      -22.8138426029      -58.8577428085
atom         9.1896700000        4.8025900000        3.5219100000 H         0.0000000000         0.0000000000        77.5969641557      -25.0050488148       72.5200648215
atom         3.4032700000        4.8994000000        3.1877500000 H         0.0000000000         0.0000000000        57.3343272490      -13.8399467930     -111.1192604562
atom         8.4402200000        5.6948000000        9.8170100000 H         0.0000000000         0.0000000000       -78.8943687481        2.9400353452      109.6996834735
atom        10.4737400000        9.8994400000       10.8194800000 H         0.0000000000         0.0000000000       -83.1927159356      106.8084636278      -10.7498121442
atom         1.1353500000        0.3978100000        3.0338000000 H         0.0000000000         0.0000000000        58.6649718030     -105.9482642918      -57.2179678706
atom         6.7050800000        0.4245800000        3.4936900000 H         0.0000000000         0.0000000000        79.0119605269     -102.4792574712       80.5418998233
atom         4.6041600000       10.1218600000        8.9793000000 H         0.0000000000         0.0000000000       -76.9114719888      120.6218401520      -23.9017360755
atom         1.6817300000        4.7004800000        9.4719700000 H         0.0000000000         0.0000000000        49.6463655478       93.7054640148      -36.4737397530
atom        10.5672400000        5.6830600000        4.1962800000 H         0.0000000000         0.0000000000       -74.2719706146     -137.7416120303       13.4612512449
atom         4.7173600000        5.7529300000        2.3362800000 H         0.0000000000         0.0000000000       -87.2769860209     -118.2748579366      -12.8816612935
atom         8.2441300000        1.5993500000       12.2895800000 C         0.0000000000         0.0000000000       108.2505926535      -27.8439479505      -37.0229596812
atom         2.9900100000        9.2334400000        0.6724100000 C         0.0000000000         0.0000000000      -106.9529251646       -6.4734693199       70.5088090032
atom         8.6579400000        9.0108200000        5.7001100000 C         0.0000000000         0.0000000000       -66.6143143663       17.9020010111      -61.9075058370
atom         2.7317000000        1.9401700000        7.1553500000 C         0.0000000000         0.0000000000        69.6840645580      -12.6489434249       61.6001895960
atom         3.0588200000        6.8298000000        7.2425700000 C         0.0000000000         0.0000000000       -77.7482137543       15.7116534365       79.1755151599
atom         8.4343500000        3.4881800000        5.8886500000 C         0.0000000000         0.0000000000       143.8194611509      -15.7090197199      -30.4721539453
atom         2.6386500000        3.4917900000        0.6729700000 C         0.0000000000         0.0000000000        80.8190243470       26.9078845309       18.5964266795
atom         8.5953900000        6.9720800000       12.5508800000 C         0.0000000000         0.0000000000       -78.5112256580       25.2294126654     -113.8705848469
atom         9.9835400000        2.8031800000       10.9702800000 C         0.0000000000         0.0000000000       -10.7628425721      -86.0976825712       43.1510435777
atom         1.6396400000        7.5864500000        2.2208100000 C         0.0000000000         0.0000000000       -95.5709790656      116.5301633013      -72.0354881196
atom         7.2591100000        7.6489300000        4.3169100000 C         0.0000000000         0.0000000000        -4.9473830210      105.3733435981       42.0953909135
atom         4.5007800000        3.0454600000        8.4554500000 C         0.0000000000         0.0000000000       -12.0536122849      -96.1398287037      -45.1884708193
atom         1.8260100000        8.0198800000        9.0473700000 C         0.0000000000         0.0000000000       -10.9440643907      -77.4273319914      -75.0477554090
atom         9.9743400000        2.2356900000        4.3966200000 C         0.0000000000         0.0000000000        38.1246086626       99.3131141905       88.2629400125
atom         4.3742400000        2.3507000000        2.0769600000 C         0.0000000000         0.0000000000        -6.6194089950       72.5249077865      -84.5665007929
atom         7.4104100000        8.0760300000       10.5915800000 C         0.0000000000         0.0000000000         1.5969308201     -104.0391571144       45.4732724465
atom         9.7655700000        0.2160500000       10.6922800000 C         0.0000000000         0.0000000000         4.7816098345       82.1921639821       75.0632344823
atom         1.7086200000       10.0650600000        2.6629400000 C         0.0000000000         0.0000000000       -30.7582587798      -71.3225965716     -102.1658272944
atom         7.4148800000       10.1394600000        3.9244200000 C         0.0000000000         0.0000000000         2.1185439827      -66.5387110974       12.6696114651
atom         4.0075300000        0.5553000000        8.8514900000 C         0.0000000000         0.0000000000        30.4253474914       95.6406655137      -69.0116769302
atom         2.1602800000        5.5834900000        9.1959700000 C         0.0000000000         0.0000000000        -6.7316368382      131.7438812982      -76.6106424835
atom         9.9371200000        4.6914100000        4.2449300000 C         0.0000000000         0.0000000000         0.3855121681      -40.7696656579       87.7162628785
atom         4.0260200000        4.8588600000        2.3067900000 C         0.0000000000         0.0000000000        61.2752833089      -74.8692746566      -94.2577586882
atom         7.6527300000        5.6465900000       10.5965800000 C         0.0000000000         0.0000000000       -69.8898960061       79.6032729273       16.7006282495
atom        11.0493400000        3.4164200000        0.2151800000 O         0.0000000000         0.0000000000      -263.8122232003     -113.1306720907       61.8803205172
atom         0.5502900000        6.7434900000       12.9455500000 O         0.0000000000         0.0000000000       205.5285478205      198.2884516758        4.6315466766
atom         5.8715300000        6.9515300000        6.4741400000 O         0.0000000000         0.0000000000       228.2550965903      176.7232315547       55.5709178605
atom         5.6936700000        3.5466900000        6.1535200000 O         0.0000000000         0.0000000000      -304.3099023488     -113.1732026912      -26.3769245289
atom         0.3655600000        9.0172700000        7.0516900000 O         0.0000000000         0.0000000000       224.0989609038     -143.1020114704      -95.5803925923
atom         9.7672400000        2.2812000000        7.9937400000 O         0.0000000000         0.0000000000        62.5799781833      -16.7816016821     -286.7884244275
atom         5.4970700000        1.5646600000       12.9016800000 O         0.0000000000         0.0000000000      -246.5113369336      181.0212323332      -43.2408345283
atom         5.5746300000        8.6391500000       12.2151800000 O         0.0000000000         0.0000000000       260.4825871815      -67.6636158516      135.7956631353
atom         9.3593800000        2.6425800000        1.4362300000 O         0.0000000000         0.0000000000       147.9117108206       70.5337638806     -249.4229684248
atom         1.4092200000        8.3784800000       11.9208800000 O         0.0000000000         0.0000000000        19.4726704751     -149.4921636559      213.6045196887
atom         7.0895500000        8.2170500000        7.8240700000 O         0.0000000000         0.0000000000       -63.2115460042     -131.8640772848     -281.0414375114
atom         4.0064200000        2.5515100000        5.0492500000 O         0.0000000000         0.0000000000       130.6696451500      140.9245169393      248.4155556464
atom         1.4530400000        7.9111200000        5.4905600000 O         0.0000000000         0.0000000000       -26.0830521958      109.9468837331      272.6415918578
atom        11.2815400000        1.7018800000        6.5906600000 O         0.0000000000         0.0000000000      -261.1367949865      100.0496017198       38.3833980974
atom         4.0025600000        2.6793100000       11.6813800000 O         0.0000000000         0.0000000000       138.5035020036      -97.4085179614      250.6593881520
atom         6.7699900000        8.2490400000        0.9292900000 O         0.0000000000         0.0000000000       -36.1643508194       22.9969012835     -261.2747007970
atom         8.9000300000       10.3989800000        1.1023800000 O         0.0000000000         0.0000000000       153.4319691236      -67.6218338354     -256.6968589166
atom         1.7602400000        0.7510500000       12.4217800000 O         0.0000000000         0.0000000000       -81.8706947309      -77.6445045778      256.3160333041
atom         7.5894500000        0.1768000000        7.3879600000 O         0.0000000000         0.0000000000       -91.7201163990       -0.5871937563     -262.7566334493
atom         3.2461300000        0.0341400000        5.4895600000 O         0.0000000000         0.0000000000        83.5060908695      -62.9887238501      248.8083562290
atom         1.9578600000        5.0773500000        5.6432300000 O         0.0000000000         0.0000000000       -80.7566478664      -13.3546765129      259.2773327662
atom         9.2516200000        5.1783100000        7.7111700000 O         0.0000000000         0.0000000000       127.4845518208       69.4472485091     -276.2868144266
atom         3.2109800000        5.3350100000       11.9222800000 O         0.0000000000         0.0000000000       180.3275975345       21.1356302707      256.3114783665
atom         7.3597200000        5.2262200000        1.0197600000 O         0.0000000000         0.0000000000       -31.8260396561      -41.9278634704     -310.0973096657
atom        10.3976400000        9.2920400000       12.8724800000 O         0.0000000000         0.0000000000      -222.5843406438      209.8601274951       59.5769515254
atom         0.1981600000        0.8010800000        0.8248900000 O         0.0000000000         0.0000000000       271.8120461808      -88.6480734517      -48.0563111426
atom         6.1509700000        0.7137600000        5.8541200000 O         0.0000000000         0.0000000000       232.6671291988     -123.7812338966       86.4236628715
atom         4.5658000000        9.4543400000        6.8097600000 O         0.0000000000         0.0000000000      -212.6488969966      188.2109575318      -37.7236056789
atom         0.6683600000        4.4143600000        7.2504400000 O         0.0000000000         0.0000000000       222.4244437999      143.3518163161      -97.9751743274
atom        10.4952400000        6.3421300000        6.2474100000 O         0.0000000000         0.0000000000      -175.7609005566     -218.7705587889       89.2437018627
atom         4.8674900000        6.1288100000        0.2057100000 O         0.0000000000         0.0000000000      -230.9252465469     -174.5164479356      -77.6283913199
atom         6.4123900000        4.2712600000       12.2943800000 O         0.0000000000         0.0000000000       196.5806346204      187.4388205148      132.7353035174
atom         0.8447300000        0.4076100000        9.5711700000 O         0.0000000000         0.0000000000      -104.9106496123      231.1402360049      110.3148132025
atom        10.5624400000        9.7662600000        3.6311500000 O         0.0000000000         0.0000000000        92.8444258444     -237.1501728105     -152.4461207278
atom         4.9053400000       10.0407600000        3.1156600000 O         0.0000000000         0.0000000000       120.9338893867     -255.6068578905      109.9669104435
atom         6.3561600000        0.5164100000       10.1269800000 O         0.0000000000         0.0000000000       -16.7493900621      247.5444880490     -146.7268883726
atom        10.8837400000        5.3412600000        9.8172700000 O         0.0000000000         0.0000000000       100.3387437590      265.2678981650     -105.9153339058
atom         1.0402700000        4.5939100000        3.1937900000 O         0.0000000000         0.0000000000       -89.9357475588     -245.4544376231      150.4653941489
atom         6.2815300000        4.9016700000        3.6190400000 O         0.0000000000         0.0000000000       -57.1018451430     -256.8185200449     -136.4470203328
atom         5.0964200000        5.6024700000        9.4835800000 O         0.0000000000         0.0000000000        90.9188125523      255.3701631523       78.0145625671
atom         1.0749400000        2.5029900000       10.1040800000 O         0.0000000000         0.0000000000      -152.8057383162     -240.0264260177      -16.1780413209
atom        10.2975400000        7.7252900000        2.8602500000 O         0.0000000000         0.0000000000       160.3980063686      228.8701362533       27.1664865242
atom         4.6433000000        8.0392000000        3.9791900000 O         0.0000000000         0.0000000000       186.8711315731      210.7699747346      -95.3598371954
atom         7.0068200000        2.5440700000        9.3773400000 O         0.0000000000         0.0000000000      -183.7521402757     -242.5626426831       37.9589867212
atom        10.5819400000        7.4279900000        9.1696600000 O         0.0000000000         0.0000000000       160.3919833081     -244.0222853001       54.7381801350
atom         1.3998400000        2.6166400000        4.1057000000 O         0.0000000000         0.0000000000      -170.5393082320      214.5034894530      -72.9606856898
atom         6.7154300000        2.7922800000        3.2159400000 O         0.0000000000         0.0000000000      -142.4368973219      235.4132374982      -29.1642985691
atom         4.7862400000        7.7507400000        9.7548800000 O         0.0000000000         0.0000000000       183.8484757845     -242.3217588753       16.9765020162
atom         9.2589100000        2.6119400000       12.2468800000 N         0.0000000000         0.0000000000         1.1749429296      -77.6233069563      -55.9590697181
atom         2.2737600000        7.8611900000        0.8627500000 N         0.0000000000         0.0000000000       -69.4877670961      108.1005529907       52.3544984174
atom         7.7841400000        7.7870900000        5.6791000000 N         0.0000000000         0.0000000000       -43.9731364727      160.4816456853      -97.4326447786
atom         3.7453700000        2.9483200000        7.2604900000 N         0.0000000000         0.0000000000        31.2495443287     -124.7666469971       44.2813763240
atom         2.2185100000        7.9594000000        7.6109000000 N         0.0000000000         0.0000000000       -27.0392349494     -114.9074108684       42.4766488990
atom         9.3829700000        2.3882500000        5.7420000000 N         0.0000000000         0.0000000000         0.4475876547      107.5394958012      -47.8963748600
atom         3.5981200000        2.4150900000        0.7776800000 N         0.0000000000         0.0000000000        54.0100439393      138.3726985345       85.2870270081
atom         7.7728600000        8.0723000000       12.0094800000 N         0.0000000000         0.0000000000       -64.2879170535      -99.1703667807      -64.1073598688
atom         8.9619700000        0.3160500000       12.0087800000 N         0.0000000000         0.0000000000        63.0167668869       80.2452788359      -30.6369305780
atom         2.1659700000       10.2533600000        1.2802300000 N         0.0000000000         0.0000000000       -28.2422431350      -89.8002281438       45.0088082156
atom         8.0126200000       10.2093600000        5.2998100000 N         0.0000000000         0.0000000000       -79.5739802478     -150.7958627205      -49.9521771355
atom         3.3201400000        0.6198100000        7.5750700000 N         0.0000000000         0.0000000000        48.5729720124       79.0956495374       29.6423198706
atom         2.5866600000        5.5891200000        7.7259500000 N         0.0000000000         0.0000000000       -92.4020695015      126.6394150967       21.4472505498
atom         9.1827500000        4.7035900000        5.5292700000 N         0.0000000000         0.0000000000        55.6042417324     -101.1425145505      -26.8834424581
atom         3.3036700000        4.8007600000        0.9905500000 N         0.0000000000         0.0000000000        61.2467144511     -118.5335924218       47.8464531037
atom         8.0807400000        5.7215100000       11.9981800000 N         0.0000000000         0.0000000000       -86.3719263726       82.8807001193      -29.6820640705
atom        10.5144400000        1.4961200000       10.5046800000 N         0.0000000000         0.0000000000       -36.6539118292       -1.4914922780       48.8081674010
atom         0.8828400000        8.7933300000        2.5698900000 N         0.0000000000         0.0000000000        81.2665868938       -0.9867773956       19.9349441469
atom         6.7435200000        8.8806300000        3.7528800000 N         0.0000000000         0.0000000000        21.2725395278       26.5937813736       99.4303100607
atom         4.9635600000        1.6997900000        8.8745300000 N         0.0000000000         0.0000000000       -40.1310033631       14.7225042020       -1.4185837992
atom         1.3553700000        6.6998000000        9.4889100000 N         0.0000000000         0.0000000000        52.2672931396      -15.4392684926     -115.4015530869
atom        10.7073400000        3.4688700000        4.1227400000 N         0.0000000000         0.0000000000       -75.3198182423       28.2823947059       23.9657139151
atom         4.9156200000        3.6587100000        2.3302700000 N         0.0000000000         0.0000000000       -75.3556775090       12.8731608526       44.7047891803
atom         6.7634700000        6.7554100000       10.3259800000 N         0.0000000000         0.0000000000        86.6463673784       58.9843288301       20.4768266534
atom         9.9509800000        2.9177800000        0.4028200000 N         0.0000000000         0.0000000000        48.5247413024        5.0609501427       40.3911177729
atom         1.3869600000        7.6476400000       12.8692100000 N         0.0000000000         0.0000000000      -137.0304387192      -18.9969161693      -90.5796798296
atom         6.8154700000        7.6790300000        6.7081700000 N         0.0000000000         0.0000000000       -60.4984874518      -39.0252998411      100.3125798575
atom         4.5165300000        3.0597400000        6.0522300000 N         0.0000000000         0.0000000000        87.3040488651      -49.3547605036      -80.7274231602
atom         1.3051200000        8.3564200000        6.6579700000 N         0.0000000000         0.0000000000      -104.7356138827      -19.4253395054      -54.6383020720
atom        10.1480400000        2.1474000000        6.8287600000 N         0.0000000000         0.0000000000       127.4032875608      -58.6281440060       98.0359334061
atom         4.4967700000        2.2725200000       12.7317800000 N         0.0000000000         0.0000000000        -6.6031167771      -63.7543921036      -97.1102501458
atom         6.6133200000        8.3467700000       12.8047800000 N         0.0000000000         0.0000000000       -90.7683713287        1.4783630536       48.8222844181
atom         9.4812000000       10.1580600000        0.0354200000 N         0.0000000000         0.0000000000         4.6229404339      -60.0507789884       62.1794677733
atom         1.3374100000        0.4536100000        0.4774000000 N         0.0000000000         0.0000000000       -86.1620715358       74.8552314664     -120.9207846288
atom         7.1856100000        0.1815600000        6.2425500000 N         0.0000000000         0.0000000000       -65.2533587616       90.3030042205       82.4356706238
atom         3.6790100000       10.3035600000        6.5885600000 N         0.0000000000         0.0000000000       105.1559528982      -29.0513771467     -100.8597391311
atom         1.6293300000        5.0201000000        6.7973600000 N         0.0000000000         0.0000000000       -37.5701309471      -71.2570653417      -56.2768920696
atom         9.7352800000        5.4358700000        6.5725500000 N         0.0000000000         0.0000000000       -14.4420110850       66.4393045802       64.9541623968
atom         3.8943400000        5.4059700000       13.0064800000 N         0.0000000000         0.0000000000       -11.1620773677      101.2467704325      -56.8011808229
atom         7.2252900000        5.0518700000       12.8230800000 N         0.0000000000         0.0000000000       -75.0250365927      -77.4855089779       83.1120793854
atom         0.4226400000        1.4487000000       10.0429800000 N         0.0000000000         0.0000000000        95.8303745432       19.0905881243      -33.2823389556
atom        10.9625400000        8.7375900000        3.0086100000 N         0.0000000000         0.0000000000       -77.0019544846       20.4031854118       74.6923885222
atom         5.3698300000        8.9605500000        3.6057700000 N         0.0000000000         0.0000000000      -134.0838258044       39.1178549075        7.0493282607
atom         6.2193900000        1.5607300000        9.5053400000 N         0.0000000000         0.0000000000        24.4249211781       10.0429851631       25.3315136734
atom        11.2683400000        6.4341800000        9.4138900000 N         0.0000000000         0.0000000000       -99.0688685250       23.3253024476       61.6665165737
atom         0.6773300000        3.5550300000        3.8108900000 N         0.0000000000         0.0000000000        88.9438507305       11.9816850749      -41.5832178282
atom         6.0531100000        3.8201100000        3.0868400000 N         0.0000000000         0.0000000000        51.9926994185      -22.6769164651       72.4044855569
atom         5.4802300000        6.7209700000        9.8208200000 N         0.0000000000         0.0000000000       -90.8731949755      -27.3346464020      -28.7796945569
energy    -35377.5626537949
charge 0
end
begin
comment generated by PY
lattice        11.3286400000         0.0000000000         0.0000000000
lattice         0.0000000000        10.4953600000         0.0000000000
lattice         0.0000000000         0.0000000000        13.0348800000
atom         7.2404200000        4.4579300000       10.3259400000 H         0.0000000000         0.0000000000        60.7181442913      108.4203445091       59.0769538353
atom         7.5346700000        1.7212600000       11.4737400000 H         0.0000000000         0.0000000000        83.0644342928       -2.3058913025       83.3263050090
atom         3.8651700000        8.8734800000        0.8835600000 H         0.0000000000         0.0000000000      -113.5939243812       43.7575822384      -39.3497253362
atom         9.6954200000        9.2215200000        5.2624400000 H         0.0000000000         0.0000000000      -120.9361836794      -17.4825318771       59.3253547356