begin
comment generated by PY
lattice        13.3100000000         0.0000000000         0.0000000000
lattice         0.0000000000        13.3100000000         0.0000000000
lattice         0.0000000000         0.0000000000        13.3100000000
atom        12.8081000000       13.2080000000        4.9827500000 H         0.0000000000         0.0000000000       -37.4933030287       35.8398655036       53.8610990832
atom         0.3126500000        1.8647100000        7.0861900000 H         0.0000000000         0.0000000000        55.9813005947       94.9213169782      -11.7270087650
atom         2.8615300000        3.0369000000        0.5645500000 H         0.0000000000         0.0000000000        14.2878869184      -65.0401896401      100.1600448213
atom         0.0850400000        8.1166800000       12.3414000000 H         0.0000000000         0.0000000000        63.5565446929      -18.6419128299       98.3132491040
atom        11.7224000000        1.1160000000        0.6155400000 H         0.0000000000         0.0000000000       120.3988736512       34.0072743838      -20.6838562654
atom         3.4646700000        3.4234000000        5.6742200000 H         0.0000000000         0.0000000000       -43.0088114078      -32.7288254898       26.1345518853
atom         7.9594700000        1.2921700000       11.8662000000 H         0.0000000000         0.0000000000        51.6483739460      128.1545501452       17.0824883073
atom        10.3679000000       10.6922000000       13.2776000000 H         0.0000000000         0.0000000000      -119.3709671239      -13.5841325883      -79.3807059787
atom        11.7311000000       12.2006000000       10.3591000000 H         0.0000000000         0.0000000000        63.4076122747       87.4401237148     -114.7212471983
atom         5.2002000000        9.2080000000        7.2896000000 H         0.0000000000         0.0000000000        -7.7894826622     -125.0434180937       45.3561215191
atom         0.0560000000       12.4211000000       12.5705000000 H         0.0000000000         0.0000000000      -128.4152262980      -52.4496306688      -84.0464382841
atom        12.0526000000       10.9739000000        6.9241900000 H         0.0000000000         0.0000000000        55.9490823727       52.1738275857       47.2265781367
atom         2.4551100000       12.4680000000        3.0941300000 H         0.0000000000         0.0000000000        -6.5030760363       71.0058538276        3.3964602769
atom         9.3976100000        2.7590000000       12.1643000000 H         0.0000000000         0.0000000000      -110.9011499991      -51.7144736946      -16.1352451610
atom         4.3534500000        3.0474400000        4.0553000000 H         0.0000000000         0.0000000000      -104.5998738900      -80.1563124196       42.8013292456
atom         4.2849300000       10.0646000000       11.6465000000 H         0.0000000000         0.0000000000       -61.7913444938       78.8191933598      151.3891150895
atom         2.7040200000       11.5204000000       11.1886000000 H         0.0000000000         0.0000000000      -151.7690544666       52.7630213912       23.1259051156
atom        11.6486000000        3.7793200000        5.4729500000 H         0.0000000000         0.0000000000       -20.3757362821      -14.5979332496      131.1127094641
atom         2.5097800000        9.9221700000        6.3887000000 H         0.0000000000         0.0000000000       -62.5338305860     -144.5099557501      -37.5543269026
atom         2.3918300000        0.4228900000       10.8160000000 H         0.0000000000         0.0000000000       -31.1061852998       84.6890494388       95.5772260377
atom         7.7820400000        0.9941200000        4.2708300000 H         0.0000000000         0.0000000000        40.8219239653      131.1309974169      -16.6633298066
atom        11.7800000000       11.6664000000       12.6931000000 H         0.0000000000         0.0000000000       132.7851450255       64.4506845452     -105.9045834635
atom         2.5797800000        0.2776600000        1.6025500000 H         0.0000000000         0.0000000000      -100.2744766711       -0.6497670655      -83.8017312218
atom         6.3158000000        5.0482500000        1.6305000000 H         0.0000000000         0.0000000000       -21.2983556320       54.8295412375      -38.6612381881
atom         4.8717600000        3.8401500000       10.6329000000 H         0.0000000000         0.0000000000       -66.5702397589       60.0852629861       99.8351805724
atom        12.1377000000       12.9795000000        6.1583700000 H         0.0000000000         0.0000000000        29.6915906328       75.1953830554      -68.1723740364
atom         0.1339900000        9.0080100000        7.8135800000 H         0.0000000000         0.0000000000       -34.6615643788       36.8606931353      -85.9488890834
atom         1.3903300000       12.5138000000        4.4723200000 H         0.0000000000         0.0000000000        28.4390555507        8.2886081842       92.9793000940
atom         1.8600900000       12.0795000000        5.9793000000 H         0.0000000000         0.0000000000       -44.1197619686       62.3649457421      -89.8343851082
atom         7.3783500000        1.5152700000        9.2191000000 H         0.0000000000         0.0000000000        55.0079550009        0.1190497149      -62.4834658123
atom         4.3567200000        6.5826000000        2.4516500000 H         0.0000000000         0.0000000000       -14.6297314832      119.6480133115      -57.8408838601
atom         9.3250400000        2.5711100000        6.2405500000 H         0.0000000000         0.0000000000      -127.5298940234      -13.7122881421       10.7920248334
atom         7.7852800000        6.9441000000        2.3050900000 H         0.0000000000         0.0000000000       -39.9996660836       90.5665619149      -31.4464178489
atom         0.7149400000        0.0141500000        1.1358500000 H         0.0000000000         0.0000000000        89.8714255169       29.7921254379      -43.8516422247
atom        12.1047000000        9.2295600000       10.8121000000 H         0.0000000000         0.0000000000        73.2222919111      -17.5620800438      -49.6538189746
atom         1.6875400000        0.9524500000        5.8247100000 H         0.0000000000         0.0000000000         8.4366400687      119.5312061619      -14.8303088650
atom         6.3659200000        3.0137500000        2.2859600000 H         0.0000000000         0.0000000000      -107.8545106069      -63.7841084713      -69.4476181067
atom         5.7215500000        1.4289500000        1.3862600000 H         0.0000000000         0.0000000000       -19.4620472212       84.8312057203       28.0240018638
atom         1.6996300000        7.1380700000        7.5369200000 H         0.0000000000         0.0000000000       -11.3419555042      -64.3104606160      -20.5523986769
atom         0.8413500000        5.9293000000        6.6306800000 H         0.0000000000         0.0000000000        60.3800688002       10.2774022324       71.2901063263
atom        12.6675000000        8.8676500000        6.5767700000 H         0.0000000000         0.0000000000        50.6990263643       47.1204719202       57.4775316526
atom         8.5327000000        9.0175200000        5.0559700000 H         0.0000000000         0.0000000000      -125.3407339309      -39.1600585915      -35.0072273548
atom         8.3725500000        8.5040700000        1.5653400000 H         0.0000000000         0.0000000000       -92.7286807771      -72.3149147154       64.9037831946
atom         3.7537400000       11.1742000000       13.1977000000 H         0.0000000000         0.0000000000        24.9067605433      -74.6307729511      -98.0264019011
atom         3.0079100000        9.0584300000        5.5306500000 H         0.0000000000         0.0000000000       -99.2093026816      -33.0495256778       67.4503305816
atom         0.8537700000       11.7194000000       11.1774000000 H         0.0000000000         0.0000000000       138.3339443259       22.1771823902       11.3459309416
atom         2.8999900000        9.3299300000        3.3453500000 H         0.0000000000         0.0000000000       145.9891545763      -28.2899951283       50.9513603565
atom         6.2558100000        8.7811000000       12.0908000000 H         0.0000000000         0.0000000000        51.0891297596       57.2507184743       90.0525425212
atom         1.5068600000        4.1029800000       11.7857000000 H         0.0000000000         0.0000000000       -37.3747160716      -49.9916738931      -82.5879618153
atom         0.4249400000        7.5302900000        0.4719700000 H         0.0000000000         0.0000000000        11.1989216466       55.0671679595     -106.4767711779
atom        13.1315000000        1.8691900000        0.2757400000 H         0.0000000000         0.0000000000       -43.7141750015      -16.5912793806        8.9106610896
atom         5.4982600000        7.7748700000        5.1499700000 H         0.0000000000         0.0000000000         5.2103894113        4.7765652467       -5.0557673467
atom         6.5925100000        0.1430400000        7.2678300000 H         0.0000000000         0.0000000000       -33.2326125586      -97.7060035052      -77.6541293905
atom         9.3955900000       10.6637000000       11.9137000000 H         0.0000000000         0.0000000000        36.5870472473       -5.8619739870      136.1068326350
atom         2.7337300000        0.8180800000        3.1445800000 H         0.0000000000         0.0000000000       -84.7899003474     -135.1388411206        3.4265934571
atom         4.9636600000        7.5867700000        7.9126700000 H         0.0000000000         0.0000000000        -8.0219274584       96.4471312911      -37.2857934594
atom        11.2551000000        8.4777800000       12.7169000000 H         0.0000000000         0.0000000000       -38.6674223561      -88.4878684573       98.9734075981
atom         4.6812800000        4.9102800000       12.0020000000 H         0.0000000000         0.0000000000       -40.8074360440     -114.1247259747     -122.2245828666
atom         5.5866500000        3.1961500000       12.4829000000 H         0.0000000000         0.0000000000       -23.9453562627      -29.0395039671      153.7503764525
atom         7.4942500000        3.7542400000        8.1906000000 H         0.0000000000         0.0000000000        64.6699561480     -112.2661115261       -9.6050930348
atom         4.5369400000        7.6164500000        0.6440900000 H         0.0000000000         0.0000000000       -48.9076339739      -10.4845386517      145.2388883906
atom         2.9736300000        7.6377800000        2.0336300000 H         0.0000000000         0.0000000000       122.4286805120      -17.8957235743      -25.6047178515
atom        11.6358000000        7.5000800000        0.5960900000 H         0.0000000000         0.0000000000       -91.6728122164       59.2630403845      -91.7005672359
atom         3.2151100000        6.0992600000        5.5915700000 H         0.0000000000         0.0000000000        38.8489347224       68.1599405834      -62.7306214317
atom         1.8790600000        2.1119600000        5.8652400000 C         0.0000000000         0.0000000000        19.4997407479      -14.8228974871       69.5226186371
atom         0.4072400000       10.7824000000        1.4803700000 C         0.0000000000         0.0000000000        84.9817016161     -129.5044691164       40.9501698668
atom         1.0060700000        2.8033400000        6.7888800000 C         0.0000000000         0.0000000000       -36.7589913163      -47.2987830832      -48.4885347100
atom         3.0058400000        2.5980000000        5.4531300000 C         0.0000000000         0.0000000000         5.7718049161       72.3399546528     -108.7658087457
atom         4.0778100000        7.6351600000       10.6533000000 C         0.0000000000         0.0000000000        43.3860753968      154.7919111055      -65.9084184679
atom         7.5577300000        3.3041700000       11.5406000000 C         0.0000000000         0.0000000000       -38.3314034674       49.8474646409     -153.3635594767
atom        11.4834000000        2.3627300000       10.5423000000 C         0.0000000000         0.0000000000       -47.7018982090      100.5513313104       32.1431643834
atom         2.8371800000        2.6545500000        1.5965300000 C         0.0000000000         0.0000000000        41.2020625961       84.1539956601      -40.4984499890
atom         8.3764500000        2.3910400000       11.9507000000 C         0.0000000000         0.0000000000       -51.1142787278       46.7291830330      -37.9799572553
atom        10.5984000000        9.1760000000        3.3560400000 C         0.0000000000         0.0000000000        -4.2966110979      -28.2426460586      -77.9228027859
atom        11.4268000000        3.6216300000        6.6524700000 C         0.0000000000         0.0000000000       -80.1055992403      -78.2779170357       21.8997383975
atom        12.2829000000        2.9990000000        2.8058100000 C         0.0000000000         0.0000000000        -2.1502318026     -124.5881960180      -32.6536858397
atom        11.2561000000        4.5193800000        7.5622600000 C         0.0000000000         0.0000000000        95.5159119972      210.1504096752       29.8292767486
atom        10.9034000000        2.3941400000        7.1132100000 C         0.0000000000         0.0000000000        23.8346487449     -136.5233865645      -25.8891641522
atom         1.6952800000       13.2567000000        0.7585100000 C         0.0000000000         0.0000000000        22.1653223624      -76.8202256973       61.5976249617
atom         8.1670600000        2.8198900000        7.8936300000 C         0.0000000000         0.0000000000      -102.6831232223       11.7227576755     -119.8582652893
atom         7.3126600000        2.3623600000        5.3268700000 C         0.0000000000         0.0000000000       -58.0227464683      -67.6232499221       32.7136013066
atom        10.8919000000        5.6829900000        2.7837400000 C         0.0000000000         0.0000000000        91.5477526895      -27.7901616465       61.8331080670
atom         8.3192500000        1.6847100000        8.6807200000 C         0.0000000000         0.0000000000        99.2497590388       52.9958940875      204.1328329990
atom         8.1332600000        2.6414400000        6.4778400000 C         0.0000000000         0.0000000000        87.5115295537       -7.6070177713       16.0540183142
atom         6.5848700000       11.3427000000        6.5458600000 C         0.0000000000         0.0000000000        66.3258181014      -51.9025512399      -25.3398937016
atom         0.1723200000        8.4607100000        3.3487300000 C         0.0000000000         0.0000000000        44.1950835611      -58.3761500026      -53.2971134496
atom         6.2176800000       12.6419000000        6.5446500000 C         0.0000000000         0.0000000000      -137.0237681756      142.7511202001      -21.3922953802
atom         5.5339800000        2.4420900000        1.5919800000 C         0.0000000000         0.0000000000        -6.6032939831       30.8719357244     -115.7816489950
atom        11.9721000000       11.6606000000        8.6224000000 C         0.0000000000         0.0000000000       -82.7657543360      -21.7297833600       31.5511239579
atom         6.7529900000        7.9532800000        0.5546700000 C         0.0000000000         0.0000000000        33.1876562297      -88.3372845579       60.4363516902
atom         7.4853100000        7.8839700000        1.9544700000 C         0.0000000000         0.0000000000        95.2633355821       41.7150439800     -117.4296199655
atom         7.4746400000        8.6498700000        4.6434200000 C         0.0000000000         0.0000000000       -50.1289835875     -100.5604813357      -54.6506291228
atom         6.4097200000        6.5982900000        0.0931600000 C         0.0000000000         0.0000000000       -67.2559950047       45.3358061320       83.5258443397
atom         6.7327100000        9.0887200000       13.1150000000 C         0.0000000000         0.0000000000        -3.3907704498      -10.2088415750       39.8652477551
atom         1.5505100000        2.3580400000       10.5768000000 C         0.0000000000         0.0000000000       -41.7688438035       -5.2255603579       53.5363489955
atom         1.0822300000        3.6223900000       10.8924000000 C         0.0000000000         0.0000000000         7.9388831036        7.1829216616       15.8146163718
atom         2.0310100000        1.2857600000       11.5124000000 C         0.0000000000         0.0000000000      -111.9557168308      -33.5925840777      -58.4734416486
atom         0.9001100000        1.9697100000        9.2206400000 C         0.0000000000         0.0000000000       -34.6530570288     -117.2577392412      108.2266106774
atom         2.6129000000        5.4630600000       13.2587000000 C         0.0000000000         0.0000000000        56.9177577976      164.6013947165      -44.3769658752
atom         4.3790400000        8.8581600000        2.4397200000 C         0.0000000000         0.0000000000       116.7072376774       31.6770829035      -88.6494353520
atom         9.8329300000       13.1959000000       11.6380000000 C         0.0000000000         0.0000000000       -73.6579435267       10.3765900551       77.2490845605
atom         2.0508000000       10.5046000000        8.8075100000 C         0.0000000000         0.0000000000         8.5474972296      -36.6623956202      -57.3042403910
atom         4.1782900000        7.5670900000        1.9161500000 C         0.0000000000         0.0000000000       -98.8938141695       11.4392145721      -25.0200833164
atom         3.8746700000        6.5428700000        4.7855000000 C         0.0000000000         0.0000000000       -24.1024633123     -113.5561030053       93.5527244900
atom         1.4417600000       10.3964000000        2.1680600000 O         0.0000000000         0.0000000000      -242.1110430028       91.4740091902     -137.7802547234
atom         5.1658800000       13.2072000000        5.8467600000 O         0.0000000000         0.0000000000       149.7745874654     -145.0032216402       84.2432407101
atom         9.1469700000       12.4017000000        7.3365000000 O         0.0000000000         0.0000000000       -53.4557876696     -324.0125141916      116.4247823912
atom         1.8610800000        2.8130400000        2.1958300000 O         0.0000000000         0.0000000000        83.2277481754      -36.4088857877      -27.1334189094
atom        13.1252000000        2.4464300000        3.4085600000 O         0.0000000000         0.0000000000      -146.4774420173      117.0687673496      -86.7468195199
atom         4.4716500000       10.5974000000        9.7502700000 O         0.0000000000         0.0000000000      -138.1425065608      209.8113097133     -194.0692210022
atom         3.5838100000        2.4373000000        4.2451000000 O         0.0000000000         0.0000000000        19.6904134961       26.2843237691      102.2552094600
atom        12.1060000000       12.7812000000        9.4781400000 O         0.0000000000         0.0000000000       -49.5776140486     -229.6569470259      -10.1724494111
atom         6.1211500000        6.0805100000       12.4159000000 O         0.0000000000         0.0000000000        31.1393326629       46.4825064383       53.3243527091
atom         2.1976200000        8.9888000000        6.0800000000 O         0.0000000000         0.0000000000       171.9863013574      176.1775256062      -23.1548808090
atom        11.0295000000        3.4130700000       10.2494000000 O         0.0000000000         0.0000000000        71.3366635883     -169.5802103853       26.8965965041
atom         6.7313700000       10.8344000000        7.6466000000 O         0.0000000000         0.0000000000       -36.8748365904       54.0591879984      -91.1780435003
atom        11.8317000000        1.4415500000       11.0997000000 O         0.0000000000         0.0000000000       -27.5365273185       76.4720897015      -67.5493077328
atom         8.0599100000        8.0842600000        8.7335200000 O         0.0000000000         0.0000000000       -38.9827491228     -239.7785101023     -173.5589782416
atom         4.9855600000        7.2837100000       10.0371000000 O         0.0000000000         0.0000000000      -102.9650658625      -10.3194139749       81.8971428736
atom         5.3048900000        1.5898700000       10.8277000000 O         0.0000000000         0.0000000000        17.5754249036      -52.1931893908     -285.6608694369
atom         2.1105600000        9.3433700000        9.1543800000 O         0.0000000000         0.0000000000       -16.0924179751      250.6882962016      -64.2590463334
atom        12.6892000000       10.7015000000        0.9097800000 O         0.0000000000         0.0000000000       174.7441236359       28.9215189327      109.8635933554
atom         2.0654900000       13.2918100000        3.1018700000 O         0.0000000000         0.0000000000        99.8397260509       63.9060036270        6.0219862565
atom        11.1509000000        8.3614200000        4.0003400000 O         0.0000000000         0.0000000000       -88.0700151555      132.9890924838      -86.4678734969
atom         4.0294000000        2.4370300000        2.2157200000 O         0.0000000000         0.0000000000        14.5387925909       12.0511356649     -103.4135586676
atom         5.4120800000        8.3211800000        7.5881200000 O         0.0000000000         0.0000000000         6.3111056360       38.1785002640       -1.7963798488
atom         5.0935400000        9.6429600000        1.7631100000 O         0.0000000000         0.0000000000      -122.8313433921     -102.9075017896      128.7024584134
atom         0.2846700000        4.4914500000        1.3394700000 O         0.0000000000         0.0000000000      -103.3518637955      281.7734797131     -184.4750505666
atom        11.3629000000        3.1451700000        2.0765600000 O         0.0000000000         0.0000000000       136.2639391339       -0.0421111390      115.5609155869
atom         1.4729000000        0.9653500000       12.7228000000 O         0.0000000000         0.0000000000        93.3954442325       54.6670305627     -131.4374760438
atom         0.6742200000        3.9323000000        7.0333500000 O         0.0000000000         0.0000000000        59.3598434346     -141.4716134671      -31.4005048743
atom         8.5687800000       12.5206000000        4.3544200000 O         0.0000000000         0.0000000000       185.3336564534     -168.7593058272      113.4305791764
atom         7.6308600000       12.7360000000        0.0252300000 O         0.0000000000         0.0000000000        48.7947405637      -65.8887035930      304.6006804014
atom         6.9366800000       10.8478000000        5.4585200000 O         0.0000000000         0.0000000000       -59.5969674127       54.7558677826      108.7388854265
atom        10.6965000000        1.2094200000        7.3279600000 O         0.0000000000         0.0000000000        51.2935390634      290.4370601334      -39.5008910770
atom         3.0050000000        5.0943900000        0.9463200000 O         0.0000000000         0.0000000000       -56.5322810276        5.6680279465      -92.0353009530
atom         2.4928800000        6.2616600000       12.3715000000 O         0.0000000000         0.0000000000         1.2098406321     -162.5325537132      134.6862621226
atom        10.5259000000       11.8757000000        5.2230700000 O         0.0000000000         0.0000000000      -260.9499489459      -47.8736324427      -72.4294458217
atom         8.0282300000        2.0142100000        4.2407300000 O         0.0000000000         0.0000000000       -94.0371395503     -101.6056029334       97.6032205036
atom        10.0909000000        9.8316800000        2.5188700000 O         0.0000000000         0.0000000000        88.7364330065      -99.6427455354      161.1423751143
atom        12.2977000000        0.3978200000        5.5611800000 O         0.0000000000         0.0000000000        17.6569895681     -118.3866948607       12.1663357410
atom        10.6389000000        6.2507800000        1.8303200000 O         0.0000000000         0.0000000000        22.4827979099      -70.0704149616      116.7469835264
atom         1.6740000000        6.1212200000        3.5333700000 O         0.0000000000         0.0000000000       -99.7779800926      -86.4182755952      261.8103106289
atom         5.6035700000       12.5964000000       11.6169000000 O         0.0000000000         0.0000000000       270.5970426866      -97.8766611655      -92.9879794442
atom         8.7617800000        2.2280900000        1.9052200000 O         0.0000000000         0.0000000000       243.4878944311     -224.0861762126       52.3444535551
atom         6.0750800000        2.0190200000        5.3325800000 O         0.0000000000         0.0000000000       195.0094223620       72.3367762031        5.6645931538
atom         9.2878000000        1.3019900000        9.4821700000 O         0.0000000000         0.0000000000      -177.7344044920       81.0937682941     -185.5494864965
atom         1.6150500000       12.7574000000        5.3540300000 O         0.0000000000         0.0000000000        14.1761116235      -84.5468448757       11.4052535045
atom        11.7967000000        7.9955700000        9.6574900000 O         0.0000000000         0.0000000000       203.9078934603      151.1436331632       77.2913375425
atom        11.5607000000       12.4520000000        2.9957000000 O         0.0000000000         0.0000000000       121.4908550025     -213.4843277243      201.4130980760
atom         9.5537500000       12.8753000000       10.5623000000 O         0.0000000000         0.0000000000        61.1650217159       17.5591012037      170.7518905282
atom         3.8273400000        0.8844200000        8.1953100000 O         0.0000000000         0.0000000000       186.5132163300     -172.6240996574      129.2306708197
atom        13.2249000000        7.9167000000        2.2936300000 O         0.0000000000         0.0000000000        37.4229514916      110.8112880984      211.5146978033
atom        12.6796000000        1.1358100000        0.4992000000 O         0.0000000000         0.0000000000       -92.9896633265      -20.3656203346       18.3186919792
atom         4.1913200000       12.7062000000        0.8985200000 O         0.0000000000         0.0000000000       148.4122608693      295.1681375407     -180.5858272320
atom         3.8142900000       10.3944000000       12.6099000000 O         0.0000000000         0.0000000000        30.3762191693        2.1459264422      -64.5172522092
atom         0.9389400000        0.7499000000        8.8806000000 O         0.0000000000         0.0000000000        25.3425893069      166.6176817668       21.3648964907
atom         8.8658900000        5.8464700000        0.5663500000 O         0.0000000000         0.0000000000       -66.3664709684      -22.7707367179     -280.0982385475
atom         4.2131500000        4.1720500000       11.2838000000 O         0.0000000000         0.0000000000       125.3849768173       49.9819636925       32.3993204894
atom         3.3999100000        8.5287300000       10.9843000000 O         0.0000000000         0.0000000000        67.5865674369     -151.8082096448      -16.0599563611
atom         2.8147100000        5.9957300000        9.0503100000 O         0.0000000000         0.0000000000      -198.2450839211     -125.2130837304     -142.4374273495
atom        11.1781000000       10.7448000000        9.0010500000 O         0.0000000000         0.0000000000       140.3277131409      139.8953475273      -67.5567957167
atom         5.5463900000        3.1116600000        0.2683700000 O         0.0000000000         0.0000000000         0.9566827176      -18.6124226010       15.0574628436
atom        11.4951000000        5.6462500000        8.0747200000 O         0.0000000000         0.0000000000       -70.2699048104     -275.7720201025     -114.0761960007
atom         6.6721600000        7.8118700000        5.3331700000 O         0.0000000000         0.0000000000        92.0482247766      131.6864070876      -89.2967970204
atom         7.2218500000        8.7989000000        3.3716300000 O         0.0000000000         0.0000000000        32.8638823333      -29.4516926312      103.1189133546
atom        12.5502000000       12.0744000000       11.9760000000 O         0.0000000000         0.0000000000        -9.6330760347      -14.0579614601      172.0143134637
atom         3.8877800000       11.1154000000        5.1892800000 O         0.0000000000         0.0000000000       161.4641389903      216.2830064656     -119.3062472525
atom         9.1686900000        5.6622900000        9.5889500000 O         0.0000000000         0.0000000000      -121.5222248779       78.9186128356     -305.7312848518
atom         9.4140500000        6.0429500000        6.2377500000 O         0.0000000000         0.0000000000       101.9036355612      203.0269769722      -13.9838364509
atom         5.8515400000        5.7877500000        1.3317900000 O         0.0000000000         0.0000000000        79.8477638804       -1.9406817568      -43.5856321695
atom        13.2100000000        9.4727500000        7.0328400000 O         0.0000000000         0.0000000000       -25.8705331216     -107.7383528190       29.3152292726
atom         0.6082500000        8.8720800000        4.3500800000 O         0.0000000000         0.0000000000       -87.1098160536      -63.7265637242     -162.6862211236
atom        12.3358000000        3.9210400000       12.6700000000 O         0.0000000000         0.0000000000       -75.9076995008      316.5247562369       57.9530474828