begin
comment generated by PY
lattice        13.3100000000         0.0000000000         0.0000000000
lattice         0.0000000000        13.3100000000         0.0000000000
lattice         0.0000000000         0.0000000000        13.3100000000
atom         2.9222400000        2.6849000000       11.6090000000 H         0.0000000000         0.0000000000       -53.9316664945      -32.9962164028      127.9849608986
atom        10.6995000000        4.3522800000        2.9662400000 H         0.0000000000         0.0000000000         8.5085648057       87.3949486737      -92.6481860992
atom        12.0111000000        6.2741900000        2.6684400000 H         0.0000000000         0.0000000000        21.5715840012      103.9360941686       21.0502757330
atom         0.4426900000        5.6493100000        8.1041300000 H         0.0000000000         0.0000000000        93.8639345284     -138.9531441524      -49.6161349957
atom        11.8381000000        8.3801500000       11.4144000000 H         0.0000000000         0.0000000000       -67.0340491783       -2.4673301543     -130.0030250174
atom         4.3952200000       11.2899000000       12.2699000000 H         0.0000000000         0.0000000000       152.3735082314      -22.3868042309      -73.5056820625
atom        10.1092000000        2.5497300000        0.5313700000 H         0.0000000000         0.0000000000       101.0172683629       24.4344852132      -36.0457399073
atom         6.1544900000        1.0487400000        5.5385300000 H         0.0000000000         0.0000000000      -113.4958510730        2.4243389795       69.9987417324
atom         4.4680800000        8.2261600000        3.8572800000 H         0.0000000000         0.0000000000       -28.7735406807      -44.4756736489       62.5829907505
atom        12.2536000000        2.8597500000        8.1481200000 H         0.0000000000         0.0000000000       -37.0320598766      -91.0769331486     -105.3123131771
atom         9.2833300000        9.2876600000        9.2374300000 H         0.0000000000         0.0000000000       -45.5938273371       -8.9125370077       49.0288720705
atom        10.0067000000       10.2480000000        2.5112400000 H         0.0000000000         0.0000000000       -56.9093054500      126.2987491244      -54.3582006252
atom        10.0079000000        7.1036400000       13.3092500000 H         0.0000000000         0.0000000000         3.0894446290      -12.0431274832      -15.7704796854
atom         1.7663400000        5.2761300000       11.1059000000 H         0.0000000000         0.0000000000       -33.8904919807      -62.2335781451       51.7628612410
atom         7.9534100000        1.3690100000        7.8122500000 H         0.0000000000         0.0000000000       -16.2300439211       -7.2767965061       45.3390561331
atom         9.4082100000        1.4316900000        7.6008900000 H         0.0000000000         0.0000000000       -92.0744121825       -5.1295417794      -43.5807212926
atom        11.4424000000       12.2769000000        1.4308500000 H         0.0000000000         0.0000000000       -88.4206475091       71.0173850639      -99.6860808127
atom         0.4626000000        4.9747400000       11.4304000000 H         0.0000000000         0.0000000000       123.3230750426      -48.5243538819       27.7634614324
atom         7.9652100000       11.3663000000       10.3025000000 H         0.0000000000         0.0000000000      -102.3750255978       -4.6109503064      -14.8503698689
atom         0.3763700000       12.9115000000        9.1560700000 H         0.0000000000         0.0000000000       -79.6074186911      129.0842702306       22.9284431602
atom         5.7560400000        0.3644800000       11.3055000000 H         0.0000000000         0.0000000000        42.8963447205       57.4413934076       -4.7300923800
atom         0.7279700000       11.8568000000        1.5202200000 H         0.0000000000         0.0000000000       -76.8754862719      -35.9609568304      -74.7512755474
atom         4.7567900000        8.8488200000        9.7569900000 H         0.0000000000         0.0000000000      -137.7236829317       85.2743392901        8.7808444925
atom         0.1967900000       12.4365000000        0.4118900000 H         0.0000000000         0.0000000000       -21.1362498555     -113.2482764818       61.2496811303
atom         9.7181900000        8.3233200000       13.1076000000 H         0.0000000000         0.0000000000        21.3645579580      -62.8758599871      -68.6167369451
atom         0.3442500000        2.5352300000        1.6569800000 H         0.0000000000         0.0000000000       -43.1883265629      -90.3099734632       13.5033113367
atom         7.1805600000        0.7065700000       11.5491000000 H         0.0000000000         0.0000000000        79.3390934042      -29.8599969616       27.7542385139
atom        13.2950000000        0.8060900000        1.9608700000 H         0.0000000000         0.0000000000       -21.5280044155       56.5687301000      -17.7202658147
atom         0.7882600000        3.7512300000        8.2401700000 H         0.0000000000         0.0000000000        38.8099299589      138.6684908306      -65.2477881250
atom         3.0015500000       11.9370000000        8.0792600000 H         0.0000000000         0.0000000000       -44.7521092420      -23.6268700419      121.1165741369
atom        12.0208000000       12.8943000000        4.2995400000 H         0.0000000000         0.0000000000        15.3061950346      -30.4318313003     -125.3083191088
atom         5.2458600000       10.3235000000        6.3273900000 H         0.0000000000         0.0000000000       -70.8165599702       60.6876575828      131.5681847915
atom         4.9954900000       11.3549000000        7.6575300000 H         0.0000000000         0.0000000000       -26.8027286119     -104.8573515125      -85.1601657875
atom         6.9633000000        4.6538800000       10.7002000000 H         0.0000000000         0.0000000000       -32.4094544244       48.6631080386        4.1616375311
atom        10.8446000000        0.3205200000        1.0559500000 H         0.0000000000         0.0000000000        -5.9013339756     -104.7735069650      -36.5748910464
atom        10.5375000000        0.5787700000       12.1198000000 H         0.0000000000         0.0000000000       116.7090961737       26.3357858771      -22.4547908788
atom         5.5374300000       11.3223000000       11.0622000000 H         0.0000000000         0.0000000000       -17.5550352177      -20.8630214884       87.7833726385
atom         7.1871600000        4.5138200000        9.1959100000 H         0.0000000000         0.0000000000       -24.3260522435       16.8097548684     -107.4802293522
atom         8.8438500000       13.2544500000       13.0902000000 H         0.0000000000         0.0000000000       -13.6996320617      135.6049593083      -38.6246485509
atom         9.2764100000        6.2728300000       11.2503000000 H         0.0000000000         0.0000000000        91.7976916613     -152.3477047248       23.1696842197
atom        12.1986000000        6.5104600000        9.1454200000 H         0.0000000000         0.0000000000        58.1883276297      -51.2070706840       69.5696974279
atom         4.0285400000        2.7524700000        1.3451300000 H         0.0000000000         0.0000000000       -48.5149941723      -92.3726891900        4.8186971708
atom        10.6079000000        8.6828400000       11.0295000000 H         0.0000000000         0.0000000000        68.6896544011      -36.7807141218      -49.4686073803
atom        12.0211000000        7.1328100000        3.7911900000 H         0.0000000000         0.0000000000        40.7742611824        5.3113239568     -133.6336320413
atom        11.7306000000        0.2743600000        2.9835300000 H         0.0000000000         0.0000000000        70.9790093617     -162.4269831126       34.2953954300
atom         0.4115900000        5.2796700000        5.0728200000 H         0.0000000000         0.0000000000       -86.6690536923      129.3617610775       36.5500733167
atom         3.1489500000        9.1121700000       10.0984000000 H         0.0000000000         0.0000000000        63.5527900394        9.3785817354      -29.1632956581
atom         2.7652200000       11.7864000000        9.7206700000 H         0.0000000000         0.0000000000         3.4266509596        1.8919213620      -92.9313264501
atom         1.1485000000        5.6657700000        3.5523400000 H         0.0000000000         0.0000000000        37.7135046140       70.1229593312      -41.5129201012
atom        10.1113000000       11.6683000000        1.7043700000 H         0.0000000000         0.0000000000       -20.1885462180      -39.9800887952       42.4059438857
atom         3.3710300000        6.4013400000        8.2477100000 H         0.0000000000         0.0000000000      -134.4624706808       -2.5689813362      110.9112040218
atom         1.6749400000        6.0316900000        0.8456100000 H         0.0000000000         0.0000000000        93.4662600159       -4.3952737394       95.2572619384
atom         6.5004900000       11.3294000000        9.3779000000 H         0.0000000000         0.0000000000        85.9285489115       -4.3687491296      140.7524849972
atom        10.2974000000        4.8583800000        1.5381400000 H         0.0000000000         0.0000000000        64.3444110618       12.9526613705      105.8857461749
atom         6.1608100000        4.8108700000        8.2003100000 H         0.0000000000         0.0000000000        63.9651317915      -17.4161839185       17.2240099056
atom         9.2013100000        4.8384000000       11.9277000000 H         0.0000000000         0.0000000000        87.3570552329       69.2633604879      -83.8057425043
atom         1.4801700000        8.9074500000        5.1754400000 H         0.0000000000         0.0000000000       -42.4198156315      -65.8294891276      -35.8659994569
atom         2.9996800000        1.9811700000        0.5918800000 H         0.0000000000         0.0000000000        96.8730193453        2.4406713939      120.3466280165
atom         5.2961000000        4.6275700000        5.9027100000 H         0.0000000000         0.0000000000       -68.6548384830       -1.4404726080       41.5824365338
atom         1.7849800000        6.3498000000        9.3146400000 H         0.0000000000         0.0000000000        84.4075474807        2.3394166075      -70.0196230213
atom         6.8495500000        5.2749400000       11.7825000000 H         0.0000000000         0.0000000000       -33.3559921961       35.3185876387     -111.8211726854
atom         6.0184000000        4.6382800000        2.8887200000 H         0.0000000000         0.0000000000        82.4121297020       -9.5129408986     -114.1059563946
atom         3.0970200000        4.6937100000        4.3171400000 H         0.0000000000         0.0000000000        68.6553500154       86.8601416841      -61.0513790225
atom        12.2535000000        6.0580200000       10.6485000000 H         0.0000000000         0.0000000000        83.7425238660       13.2426289441     -155.3633837468
atom         1.0846700000        8.0218300000        4.7819700000 C         0.0000000000         0.0000000000       168.2934720809      -47.5645819637        0.2287331656
atom        11.8766000000        2.9905700000        4.7704700000 C         0.0000000000         0.0000000000       118.3603406588        9.8771972776       44.4774214674
atom         1.7212000000        6.3657800000        3.0692100000 C         0.0000000000         0.0000000000        65.5938876930       36.4395549232      -18.4271203129
atom         1.9275500000        7.6525200000        3.4537000000 C         0.0000000000         0.0000000000      -167.8916614399       78.9514963785      -17.3607332826
atom        10.5845000000        9.7809300000        4.9640300000 C         0.0000000000         0.0000000000        79.8280561394       16.7165231710       -1.7161096334
atom         1.1221700000        1.1586800000       11.1658000000 C         0.0000000000         0.0000000000       -82.1588864211      129.0598014694       13.4896356840
atom         6.2494500000        2.4648100000       11.2311000000 C         0.0000000000         0.0000000000        69.4487998444     -116.9007461481       69.5707715721
atom         1.3769000000        1.8663700000       12.2745000000 C         0.0000000000         0.0000000000       -18.8988717609     -134.1492419148      -45.3432900325
atom         0.2525300000        1.4543900000        9.9024900000 C         0.0000000000         0.0000000000        97.7252916289        3.1676648222       -5.6112300652
atom         7.7757600000       11.0810000000        1.2513500000 C         0.0000000000         0.0000000000       -87.0751424779       10.8313422498     -124.1338326802
atom         8.9712100000        9.9427600000       11.2645000000 C         0.0000000000         0.0000000000        18.2551799846       43.2325832819      -52.9016582461
atom         7.5381100000       12.3608000000        6.8556900000 C         0.0000000000         0.0000000000       -81.9010418908      -35.8350756075       -1.6476141247
atom         1.4983300000        3.2868100000        3.7706500000 C         0.0000000000         0.0000000000        17.4491603167       36.3487200116     -132.0024499921
atom         1.9867700000       13.0506000000        4.1213600000 C         0.0000000000         0.0000000000       146.8919422758       86.0699996034      -51.2795864624
atom         8.6925500000        9.1175100000       10.0465000000 C         0.0000000000         0.0000000000       -90.8473273801     -135.1801298404       58.8810381415
atom        11.2684000000        1.1389800000        6.6705000000 C         0.0000000000         0.0000000000       103.3793160924      -61.8374518779       54.4767698929
atom        12.8447000000       11.4933000000       11.0484000000 C         0.0000000000         0.0000000000         8.3580863139       49.1142071694       98.6701833599
atom        13.2131000000        1.6007300000        1.3771200000 C         0.0000000000         0.0000000000        62.9742165925       86.8673482872      -48.5151299317
atom         7.8991400000        1.4256900000        0.5826900000 C         0.0000000000         0.0000000000       -84.1244520107      -18.8911797328       -7.1465833793
atom        11.9662000000        2.2894500000        7.1212400000 C         0.0000000000         0.0000000000        49.2096525698      165.2680128632     -113.5609944045
atom         5.1759900000        1.1716300000        6.2736500000 C         0.0000000000         0.0000000000       174.9612325715       51.2119307081      127.1800601036
atom         4.6570700000        2.4249400000        6.0887300000 C         0.0000000000         0.0000000000        31.6374492674       59.0075280124     -194.9597854353
atom         2.3254500000        6.1299300000        1.8239300000 C         0.0000000000         0.0000000000        18.6406927090      -61.7437617312      104.9468081181
atom        13.0162000000        5.9474100000        0.3008600000 C         0.0000000000         0.0000000000       -90.4110516151       34.0841896568      -53.8484636659
atom         5.8281300000        1.1955700000        7.5192100000 C         0.0000000000         0.0000000000        21.0142964695       41.2055451532      -16.9392482563
atom         6.5695100000        2.0638800000        3.0183400000 C         0.0000000000         0.0000000000        45.8987910007        9.2712310042       41.5476306396
atom         0.8660800000        6.9663100000        5.7006500000 C         0.0000000000         0.0000000000       -42.8933287047       96.0957267049      -19.6646105200
atom         6.7882400000        7.7631100000       12.5617000000 C         0.0000000000         0.0000000000       -48.1316438186      -13.6764852177       57.1468396774
atom        12.3913000000        3.2512100000        6.0653400000 C         0.0000000000         0.0000000000      -166.4332210980     -164.6006187315      -44.7857651977
atom         7.5820800000        4.0315100000        1.6113800000 C         0.0000000000         0.0000000000        -3.0272628043       -7.6960836498        8.9070792412
atom         3.5853000000       12.2413000000        1.1259000000 C         0.0000000000         0.0000000000       -79.8149828303      -64.4047811374       82.2017179927
atom        11.1464000000        2.3360300000       11.9332000000 C         0.0000000000         0.0000000000       128.7168460906      -53.5628688542     -137.1179416103
atom        12.0976000000        2.0904900000        0.9023500000 C         0.0000000000         0.0000000000       -92.2112433365       29.6746238921     -127.3650285962
atom        11.1863000000        2.6104700000        0.0984200000 C         0.0000000000         0.0000000000         4.7132329260     -109.2548422887       56.9606474624
atom        11.9330000000        9.1662000000        1.4215000000 C         0.0000000000         0.0000000000      -158.5032258632       94.0896702163     -107.1876828775
atom         3.6365400000        5.5524700000        3.8331600000 C         0.0000000000         0.0000000000       -35.4712800976      -38.0009689294      -13.0606761787
atom         4.1627900000        8.2858700000        5.8538100000 C         0.0000000000         0.0000000000      -199.5818850355       93.8147478179       -4.4677931173
atom         4.2437300000        7.6573800000        4.6993700000 C         0.0000000000         0.0000000000        68.9913595091      -61.9221156695       18.1949813574
atom         7.7765600000        2.8779200000        2.5186300000 C         0.0000000000         0.0000000000       -58.4967428508      -21.0640602069     -118.0051038027
atom         4.4681100000        6.2286400000        4.7282500000 C         0.0000000000         0.0000000000       -95.4817621771       59.9789402332       56.9561030716
atom         7.1798600000       12.7576000000        5.7266200000 O         0.0000000000         0.0000000000       100.9528479334      -97.5448295573      243.9325910308
atom        12.1584000000       12.5780000000        3.2221900000 O         0.0000000000         0.0000000000       -86.8435901970      205.1994292444      106.4783429966
atom         4.6638100000       10.5916000000        7.1363500000 O         0.0000000000         0.0000000000       105.6368663995       55.7295180741      -41.0370185448
atom         1.9449700000        0.7730100000        3.4573600000 O         0.0000000000         0.0000000000       -14.0854156074     -227.6418858508      144.2915209296
atom         9.7825200000        3.5554200000        8.4615000000 O         0.0000000000         0.0000000000       -60.6071274438      322.3752247101      -34.6811446967
atom         9.9819500000        4.2171400000        4.7619600000 O         0.0000000000         0.0000000000      -211.5072902704     -234.0921379983      -18.3247251686
atom         0.0619300000       11.5851000000        0.8846500000 O         0.0000000000         0.0000000000        94.3407642762      148.6697615170        9.6656286662
atom         7.6067000000       11.8081000000        7.9743100000 O         0.0000000000         0.0000000000         2.2618709002      130.3903241272     -259.6400686244
atom        11.1077000000        5.6130300000        6.8597700000 O         0.0000000000         0.0000000000      -108.2478561813      -21.7275261193      304.2223840700
atom         5.4345600000       11.0724000000       11.9716000000 O         0.0000000000         0.0000000000      -150.0022585222       55.4865067960       -7.0881549008
atom         0.5510200000       11.9495000000       10.6644000000 O         0.0000000000         0.0000000000      -152.4157613871      -85.7498136073       32.7099622579
atom         0.3860800000        2.5772100000        9.4558900000 O         0.0000000000         0.0000000000       -22.8052179966     -115.1265208446       56.1367625128
atom         7.4066800000        3.1398500000       10.8951000000 O         0.0000000000         0.0000000000      -198.2789161984      -90.8896535263       46.7890545620
atom         1.2042700000        3.1634000000        4.8683500000 O         0.0000000000         0.0000000000        49.3383177053       16.7028297716     -139.7870633042
atom         6.5327500000        4.8248600000        2.0382700000 O         0.0000000000         0.0000000000        48.5890346648      -66.6710305665       31.1365037472
atom         2.3752200000        2.4594200000       12.6024000000 O         0.0000000000         0.0000000000        36.7160822460       29.1887428383     -140.0182476878
atom         8.2450200000        4.2856000000        0.5754900000 O         0.0000000000         0.0000000000      -116.0487577773      -32.1988667116      171.0648300828
atom         4.1055800000        7.2175900000       11.4640000000 O         0.0000000000         0.0000000000        22.8514854535     -108.7307391362     -287.5889266433
atom         4.1276500000        9.9753500000        0.4476800000 O         0.0000000000         0.0000000000        74.7727122901     -196.7397825393      256.2250386294
atom         8.9842700000        7.8768500000        1.6925800000 O         0.0000000000         0.0000000000       154.7982626519      233.1942058177      245.8287073953
atom        10.7931000000       12.7354000000        0.7291300000 O         0.0000000000         0.0000000000        96.2303395084       25.6504735535      139.5990089870
atom         2.4651600000       11.7012000000        8.8429500000 O         0.0000000000         0.0000000000        33.8602311145       24.2874972757      -27.2519146581
atom        13.2365000000        6.2263900000        5.2320000000 O         0.0000000000         0.0000000000       121.7844574406     -140.1382368540       -4.3803499854
atom         1.1473700000        4.7198100000        7.6789200000 O         0.0000000000         0.0000000000      -133.5153182714      -25.7523543048      124.5164230204
atom         8.7772100000        0.9590200000       12.8450000000 O         0.0000000000         0.0000000000       -76.0748814404     -102.6328401215      131.7813956633
atom         4.9532600000        4.8144800000       12.8561000000 O         0.0000000000         0.0000000000      -394.0442666249       90.3097720949      -71.3201155630
atom         9.5595300000       13.2397000000        4.2247500000 O         0.0000000000         0.0000000000      -149.0348976609      168.7104366679      118.2573202970
atom         3.6448700000        5.5329800000        2.3445400000 O         0.0000000000         0.0000000000      -102.3639941456       66.4568867583       32.2057486545
atom         7.2011800000        6.8268300000       13.1598000000 O         0.0000000000         0.0000000000       -58.7075233642      162.2281767226     -108.7360507431
atom         0.9450500000        1.2663500000        0.4948600000 O         0.0000000000         0.0000000000       -18.8448766534       25.9057936235      -77.0556197064
atom         3.8204800000       10.1801000000        3.7618100000 O         0.0000000000         0.0000000000      -270.3318885317       77.2246819905      266.0831999038
atom        11.6223000000        9.4895000000        2.4747800000 O         0.0000000000         0.0000000000        69.1652698228      -40.8563912890      -88.1508021660
atom         4.4955300000       12.7204000000        0.6847600000 O         0.0000000000         0.0000000000       -81.1485367544      -39.6933765590       38.2999498698
atom        11.9720000000        2.8925300000        3.6159000000 O         0.0000000000         0.0000000000       -23.6267985364       16.6947445197      142.3497328198
atom        13.0545000000        0.5259400000        9.1648900000 O         0.0000000000         0.0000000000       119.0563764423      -38.7158356170       53.8993448228
atom        11.6364000000        9.2175000000        0.2546300000 O         0.0000000000         0.0000000000        94.6579584801      -29.7167642460      196.7864893841
atom        11.9347000000       11.2368000000       11.7350000000 O         0.0000000000         0.0000000000       139.4270552880       28.3299163369     -129.8466756566
atom         6.9431400000       11.2724000000       10.3019000000 O         0.0000000000         0.0000000000        29.4869587394        9.3993066696     -131.0122888947
atom         6.3859000000        8.3458600000        8.7553500000 O         0.0000000000         0.0000000000      -185.2334914868      -56.8373927907     -252.5771130598
atom        11.8382000000        0.3850000000        5.7369800000 O         0.0000000000         0.0000000000       -88.3443127658       93.3604132204      102.8621185326
atom         6.4421100000        1.3662400000        8.4983100000 O         0.0000000000         0.0000000000      -125.1223911241      -39.7998032408     -158.6902244356
atom         8.4883700000        1.5790100000        7.1946000000 O         0.0000000000         0.0000000000       101.5213069083        9.1792825623      -22.6437273567
atom         6.1490400000        8.6719800000       12.1858000000 O         0.0000000000         0.0000000000       109.4654013514     -149.4730557336       53.9176724148
atom         7.2892600000        4.9708500000        5.3654200000 O         0.0000000000         0.0000000000        97.1281534813     -258.3282385038       97.4192356471
atom         5.5176600000        2.6884300000        3.3306400000 O         0.0000000000         0.0000000000       166.9064133878     -110.1448893275      -52.1109674952
atom         2.1573400000        8.4739900000       12.3609000000 O         0.0000000000         0.0000000000      -260.8162780107      101.8972542967      167.8938617301
atom         7.5127100000       11.6226000000        0.1978400000 O         0.0000000000         0.0000000000        77.3297722908      -75.1354410964      200.8609139927
atom        11.7715000000        7.9990600000        7.7046800000 O         0.0000000000         0.0000000000       130.5418201060       56.2077878241      -67.0743714373
atom         3.9723300000        2.4462900000        4.9707600000 O         0.0000000000         0.0000000000        73.1869166782       11.5353245479      196.9615956329
atom         9.3367400000       11.0176000000       10.7016000000 O         0.0000000000         0.0000000000       -47.6845100309      -80.6750621947       63.5620218063
atom         6.5537800000        5.4845900000       10.8821000000 O         0.0000000000         0.0000000000        62.9240886294      -89.4144991608      104.2618715065
atom         2.0765600000        8.6623100000        2.5926000000 O         0.0000000000         0.0000000000        10.8109199669     -149.6030661169      120.0774176964
atom         3.0322100000       12.4578000000       11.6811000000 O         0.0000000000         0.0000000000       129.6495902919      184.8460010153     -146.2738689473
atom         3.6034400000        1.9145700000        1.4400100000 O         0.0000000000         0.0000000000       -38.6671408925       85.9410822791     -116.4489414185
atom        12.6558000000        4.7972400000        0.5219900000 O         0.0000000000         0.0000000000        92.9953291877      258.3223211036      -44.6396014750
atom         9.7565100000       10.5793000000        5.0158200000 O         0.0000000000         0.0000000000       102.0903879621     -116.7281403606       -8.8471650654
atom         5.1116200000        2.8639200000       11.8291000000 O         0.0000000000         0.0000000000       165.0194758631      -37.4006075207     -111.9629762782
atom        12.3834000000       11.3977000000        6.9205200000 O         0.0000000000         0.0000000000       300.1217588365      -13.6601940728     -136.3987457766
atom         5.3679900000        3.4623200000        6.4806800000 O         0.0000000000         0.0000000000       -79.1411836079      -62.8822792201      -53.8384937992
atom         7.5627600000       10.3653000000        2.1058300000 O         0.0000000000         0.0000000000       -11.3374762236       48.4890211665      -67.4432310955
atom         1.1450200000        6.9357000000        6.8518300000 O         0.0000000000         0.0000000000       -20.1392022578       20.9900781744      -79.0735334549
atom         3.3787400000        1.9497500000        8.2713800000 O         0.0000000000         0.0000000000        27.7053533761      155.2478531726      298.9676026798
atom         8.5082800000        9.1262500000        6.8202800000 O         0.0000000000         0.0000000000       110.5935896060     -283.4096858473      115.3601602656
atom        12.2999000000        7.1915500000        2.8397900000 O         0.0000000000         0.0000000000       -72.4858289296     -122.2631822583       97.4914952571
atom         3.2407400000        8.9879000000        6.3867900000 O         0.0000000000         0.0000000000       231.8914026431     -157.5637847343      -97.8758044004
atom         6.9937800000        0.7603100000        3.2659900000 O         0.0000000000         0.0000000000       -78.3624687577      183.8591104006      -13.0983456459
atom         9.4364300000        1.1806600000        9.6626800000 O         0.0000000000         0.0000000000      -231.4903823123     -366.7623749264       85.0818437704
atom         5.6420500000        7.2982300000        1.6845700000 O         0.0000000000         0.0000000000      -217.2571764177      158.9438802599     -199.6260815399
atom         4.7232200000        5.7214000000        5.9342800000 O         0.0000000000         0.0000000000        17.6881647696       -6.2315887328     -150.6184333232
atom        12.8584000000        6.1120400000        9.7148400000 O         0.0000000000         0.0000000000      -144.3792706460       36.6687328546       79.3186771929