begin
comment generated by PY
lattice        13.2567600000         0.0000000000         0.0000000000
lattice         0.0000000000        13.2567600000         0.0000000000
lattice         0.0000000000         0.0000000000        13.2567600000
atom         2.3562400000        2.6603600000        1.3660800000 H         0.0000000000         0.0000000000       -93.5736438719       27.0302128988       77.7700888019
atom        12.9656800000        1.1078500000        0.7596300000 H         0.0000000000         0.0000000000        35.7641991841       96.1737341962      -57.1734002975
atom         1.7667800000        4.0014700000        2.3809400000 H         0.0000000000         0.0000000000       -26.8114434029     -112.3939518295      -44.2500277996
atom         0.3497900000        2.0522800000        5.9791800000 H         0.0000000000         0.0000000000       -74.0922782469        8.4369152016      120.5209873982
atom        11.4941800000        3.7950400000        1.3997000000 H         0.0000000000         0.0000000000        83.0256758747      -36.6638013392       68.6766137391
atom        11.8464800000        2.4095200000        2.4577900000 H         0.0000000000         0.0000000000        57.0583192675      104.6530805457      -63.0126927857
atom         0.4256100000        5.3249600000        0.6621200000 H         0.0000000000         0.0000000000         6.7487999475      -96.1980316962      -50.3758557973
atom         0.0421500000        5.1861100000        7.0598200000 H         0.0000000000         0.0000000000        97.3998291846      -79.3338744922       19.4527703465
atom         4.7549700000        2.6603800000        4.4513900000 H         0.0000000000         0.0000000000        60.7752889631       11.8109239227       93.3131192386
atom         7.6422000000        1.3523600000        4.2195800000 H         0.0000000000         0.0000000000       -60.1505641031       95.0996247581      -76.5803356683
atom         4.8583400000        3.9391800000        5.6994100000 H         0.0000000000         0.0000000000        72.3982076374     -105.0528749124      -62.2156014732
atom         6.1909900000        1.7820500000        3.1655200000 H         0.0000000000         0.0000000000        98.9724406830       31.7908619763       48.6049537264
atom         8.8640800000        3.8877200000        4.8077800000 H         0.0000000000         0.0000000000      -114.1059077255      -36.1610618328       77.7769705202
atom         8.1808200000        2.5856700000        5.8567200000 H         0.0000000000         0.0000000000       -32.9850025362       96.4183208379      -34.1199069392
atom         6.3222700000        5.5192500000        4.1906700000 H         0.0000000000         0.0000000000        21.2949842534     -112.2459459550      -69.6542112079
atom         7.5668200000        4.7826800000        3.2159400000 H         0.0000000000         0.0000000000      -102.9555173893      -15.8818928813       32.0572934020
atom        11.2479800000       10.6270800000        5.1740500000 H         0.0000000000         0.0000000000        84.3405982941      -58.2216952746      -77.7683471104
atom         0.8570900000       11.8394800000        5.4632600000 H         0.0000000000         0.0000000000       -56.8313567150      -85.2721118854       76.8860346311
atom        11.6666800000        9.3742000000        3.8926900000 H         0.0000000000         0.0000000000        36.8380687302       84.4668323937       68.2560988618
atom        12.3388800000       11.1376800000        0.3572200000 H         0.0000000000         0.0000000000       107.8354031215        5.1445420210      -72.6947329153
atom         2.0498400000        9.0324200000        5.0954700000 H         0.0000000000         0.0000000000      -117.3288085911       24.1580085907      -66.2702753784
atom         1.4936000000       10.1569800000        3.8546600000 H         0.0000000000         0.0000000000       -48.2230128074      -90.7211599887       70.9072157706
atom        12.4606800000        7.6582000000        5.7515100000 H         0.0000000000         0.0000000000        43.5097286545      116.7204117967       35.8122518287
atom         0.4993300000        8.3821300000        0.2510800000 H         0.0000000000         0.0000000000      -108.1827607659       17.1040941741      -67.1397050313
atom         8.4311800000       10.9208800000        2.0381300000 H         0.0000000000         0.0000000000       -78.4430353028      -56.0340528387      -92.9178887373
atom         5.9558600000       12.0694800000        2.6473200000 H         0.0000000000         0.0000000000        28.9168570484      -98.4802033131       57.6041714407
atom         8.0459600000        9.5781200000        0.7166600000 H         0.0000000000         0.0000000000       -32.4244538141       93.5625783930       79.4637811447
atom         6.9223000000       11.2229800000        3.9672500000 H         0.0000000000         0.0000000000       -85.7735112956       -6.7306801697      -96.2893372065
atom         4.5794400000        9.1811400000        1.8587600000 H         0.0000000000         0.0000000000        66.0989139008       71.5121869502      -82.3501397653
atom         5.1117000000       10.8237800000        1.0358100000 H         0.0000000000         0.0000000000       -12.6813315065     -123.9987380393        3.9129901356
atom         7.0569600000        7.9963000000        2.2632900000 H         0.0000000000         0.0000000000       -11.6625576517       61.3871416820       74.7414197827
atom         5.9388500000        8.5192300000        3.6014000000 H         0.0000000000         0.0000000000       103.7839730781       12.1632413170      -76.1920092235
atom         1.9937500000        2.1202100000        8.0304400000 H         0.0000000000         0.0000000000       -76.4174697518       39.2768273678       96.6357048041
atom        12.5762800000        1.2888100000        7.4357200000 H         0.0000000000         0.0000000000        44.4986004762       97.8078417163      -62.7575689437
atom         1.6669100000        3.2313300000        9.5542400000 H         0.0000000000         0.0000000000       -38.0723684086      -77.8803773500      -92.4876682158
atom         0.8837300000        1.7965000000       12.8845800000 H         0.0000000000         0.0000000000      -100.1986439541       20.4682480252       58.2568201177
atom        11.4507800000        3.8997100000        8.1727300000 H         0.0000000000         0.0000000000        87.7072235882      -14.2917550480       76.7393238424
atom        11.7969800000        2.8224400000        9.4085100000 H         0.0000000000         0.0000000000        64.0673824766       82.9048087461      -55.2590408040
atom         1.5030500000        4.9959400000        8.0857800000 H         0.0000000000         0.0000000000       -66.3568492091      -62.2699516063      -94.5602471065
atom        12.8418800000        4.3818700000       12.7354800000 H         0.0000000000         0.0000000000        84.5781415159        5.4459234690       77.0757051328
atom         4.3887900000        2.6452700000       11.5373800000 H         0.0000000000         0.0000000000        97.0207247868       27.2440170772       55.6147803246
atom         7.1104100000        1.3468200000       10.9191800000 H         0.0000000000         0.0000000000       -30.8487647006       87.3286279753      -85.1207852235
atom         5.0493000000        3.9456700000       12.5845800000 H         0.0000000000         0.0000000000        12.9279910837     -107.9463267605      -56.8651747394
atom         5.9574100000        2.0709700000        9.6540600000 H         0.0000000000         0.0000000000       100.6375635761       -0.6092070242       60.5355170363
atom         8.4419900000        4.1350700000       11.2891800000 H         0.0000000000         0.0000000000       -59.2218865728      -40.9289103719       95.0627693105
atom         8.0884700000        2.7685200000       12.5112800000 H         0.0000000000         0.0000000000       -24.8911605061      112.1637545603      -55.4212993399
atom         5.7730200000        5.3221700000       10.9547800000 H         0.0000000000         0.0000000000        44.6780241167      -65.5264421418      -80.2138986104
atom         7.1782500000        4.9022500000        9.8668200000 H         0.0000000000         0.0000000000      -115.6800715142      -24.7591781079       37.6474434326
atom        11.1845800000       10.8822800000       11.8231800000 H         0.0000000000         0.0000000000        58.3350961952      -70.2822945632      -85.4908318504
atom         0.3365800000       11.9387800000       12.4650800000 H         0.0000000000         0.0000000000       -41.3723844271      -94.6222428148       61.6196806521
atom        11.4481800000        9.2995500000       10.7311800000 H         0.0000000000         0.0000000000        26.5247116985      109.2286351165       61.6541986511
atom        12.8133800000       11.4864800000        6.6833200000 H         0.0000000000         0.0000000000        94.5097512779      -39.7801600173      -51.6422713371
atom         1.8319900000        9.2526400000       11.8568800000 H         0.0000000000         0.0000000000       -93.3064986384       30.7513307235      -86.0458048125
atom         1.1846400000       10.5823800000       10.7220800000 H         0.0000000000         0.0000000000        -6.4140829586     -110.9719195446       62.8312997766
atom        12.3644800000        7.9327100000       12.2658800000 H         0.0000000000         0.0000000000        57.3897980233       56.6561005764       88.3760244447
atom         0.2637200000        8.2315900000        6.9515500000 H         0.0000000000         0.0000000000       -78.9413064975       53.1125848013      -72.4429122970
atom         8.6245500000       11.0380800000        8.4481000000 H         0.0000000000         0.0000000000       -80.9900084811      -61.0431956344      -45.8806400273
atom         5.8105800000       11.9271800000        8.9708800000 H         0.0000000000         0.0000000000        59.0199380516      -85.4899358508       61.4472585257
atom         8.5251100000        9.5387400000        7.6191000000 H         0.0000000000         0.0000000000       -71.4776903109       99.6606628911       26.4447673602
atom         7.0072000000       11.4887800000       10.2116800000 H         0.0000000000         0.0000000000       -74.8238652772      -35.0468171486      -66.1787352588
atom         4.7589000000        9.0525300000        8.4809700000 H         0.0000000000         0.0000000000        92.9626193306       42.6348197942      -78.1911580939
atom         5.1263300000       10.4311800000        7.4311300000 H         0.0000000000         0.0000000000        41.0760731290     -105.5761343718       47.7031102563
atom         7.6015500000        8.0354200000        8.9462100000 H         0.0000000000         0.0000000000       -69.1879160153       78.6151948348       79.3586005372
atom         6.1526400000        8.3182000000       10.1274800000 H         0.0000000000         0.0000000000        95.3167319837       50.3763999236      -69.0994767298
atom         0.2424800000        3.1705700000        1.1346100000 C         0.0000000000         0.0000000000        -3.6355781597        5.4196969625      -30.7988323505
atom         1.4960400000        2.9968900000        1.9877200000 C         0.0000000000         0.0000000000         6.4420127304       34.9349588779      -11.0055354856
atom        13.2431200000        2.0128700000        0.2250800000 C         0.0000000000         0.0000000000        -7.4273839622      -56.3842571798        5.5511042692
atom        12.3009800000        3.3620300000        1.9748500000 C         0.0000000000         0.0000000000       -23.2861872046       -1.0633627797       30.5058622136
atom         0.4205600000        4.3826000000        0.1757000000 C         0.0000000000         0.0000000000       -18.8823086170       -1.8349377508      -17.4689654221
atom         6.7453000000        3.3359700000        4.4460300000 C         0.0000000000         0.0000000000        -1.2986906708        6.3826517329       34.2799228443
atom         5.4270300000        3.0003600000        5.2120800000 C         0.0000000000         0.0000000000        -6.2126898777       58.5277047428        6.8770359752
atom         7.1047500000        2.1781700000        3.6109900000 C         0.0000000000         0.0000000000        -8.3066899160      -19.0834506666      -19.0073917398
atom         7.8779400000        3.5238400000        5.4382800000 C         0.0000000000         0.0000000000        36.4905211576       27.8036608188      -45.1677591004
atom         6.6000400000        4.5795900000        3.6214100000 C         0.0000000000         0.0000000000        11.5357892447        8.3790442440        2.8064624477
atom        13.2351800000        9.8328800000        5.3583700000 C         0.0000000000         0.0000000000       -15.6884481355      -33.4836289446       -6.1995990048
atom        12.0452800000       10.1750800000        4.5178200000 C         0.0000000000         0.0000000000       -15.0478377506       56.7210692246       10.0780556496
atom         0.4055700000       11.0723800000        6.1429300000 C         0.0000000000         0.0000000000        25.3279405924        0.3628038272      -16.6737471666
atom         1.0828000000        9.3335400000        4.5082400000 C         0.0000000000         0.0000000000        53.6967060988       23.0906140730      -20.5535379087
atom        12.7778800000        8.6258400000        6.2323100000 C         0.0000000000         0.0000000000       -32.9689379648      -47.7688580569       27.9043578772
atom         6.4620600000       10.0533800000        2.1551900000 C         0.0000000000         0.0000000000        32.0781649334      -42.5440271713        7.4394265879
atom         7.6691000000       10.4451800000        1.3191800000 C         0.0000000000         0.0000000000         4.4343399149        9.8404908700       -0.2936925078
atom         6.1429400000       11.1204800000        3.1588600000 C         0.0000000000         0.0000000000       -25.1406340201       33.5609147386        4.3669111919
atom         5.2965100000        9.7539300000        1.2326900000 C         0.0000000000         0.0000000000        19.9757060052       22.9607360021       53.7949407061
atom         6.8511700000        8.7376300000        2.9607900000 C         0.0000000000         0.0000000000       -40.3145444684       49.0526032789       12.3127990506
atom         0.1784400000        3.2781200000        7.9688600000 C         0.0000000000         0.0000000000         5.9532638056      -68.9675455693        6.1519469378
atom         1.2377800000        2.5286600000        8.7868600000 C         0.0000000000         0.0000000000         7.7031202172       16.8719860218       11.3754774132
atom        12.9002800000        2.2101300000        6.9087500000 C         0.0000000000         0.0000000000       -24.2095396150       11.9015297866      -24.2806073307
atom        12.2773800000        3.6136500000        8.8282700000 C         0.0000000000         0.0000000000       -29.3212948942       25.9511576183      -22.3325465709
atom         0.8480600000        4.4577900000        7.3335900000 C         0.0000000000         0.0000000000       -28.4138190717        8.1776980435        9.3931928417
atom         6.5229400000        3.3936400000       11.1797800000 C         0.0000000000         0.0000000000        -9.1750383164      -17.3469531150      -18.8374256288
atom         5.2756700000        2.9804500000       12.0578800000 C         0.0000000000         0.0000000000        27.5031843169       54.5271488395       31.5061408287
atom         6.8484800000        2.2007500000       10.2574800000 C         0.0000000000         0.0000000000        -2.9423374691       12.9079279026       29.8467128394
atom         7.7626900000        3.7263500000       12.0362800000 C         0.0000000000         0.0000000000       -23.4504931392      -23.0159806974      -17.2861175249
atom         6.1994900000        4.5918300000       10.2900800000 C         0.0000000000         0.0000000000         3.8278964782      -14.8892397729       34.5831077590
atom        13.0283800000        9.8769300000       12.0867800000 C         0.0000000000         0.0000000000        27.4097971131       -2.1982663976        4.9924552091
atom        11.8399800000       10.2612800000       11.1760800000 C         0.0000000000         0.0000000000        19.3135112687      -24.5183586549        5.8290592408
atom         0.0274300000       11.0398800000       13.0014800000 C         0.0000000000         0.0000000000         2.1137093391       -2.7705405764       14.8053316169
atom         0.9808700000        9.5972600000       11.2158800000 C         0.0000000000         0.0000000000       -12.4393382632       56.7033422354       -7.3777917247
atom        12.8164800000        8.6281200000       12.9656800000 C         0.0000000000         0.0000000000       -38.0546228936       42.8103705073      -20.4345484584
atom         6.6773700000        9.9402500000        8.7384400000 C         0.0000000000         0.0000000000        13.4570460090        7.0383425273       -0.7053871776
atom         7.9088700000       10.4222800000        7.9430200000 C         0.0000000000         0.0000000000        16.8955008039       -7.8415744923      -14.7428042220
atom         6.2506600000       11.1184800000        9.5696300000 C         0.0000000000         0.0000000000       -59.3463780407       18.7473597850        0.3962840503
atom         5.5706200000        9.4897200000        7.8550700000 C         0.0000000000         0.0000000000       -63.8507434551       57.3134473455       -4.5466247049
atom         7.0157700000        8.7898700000        9.5860500000 C         0.0000000000         0.0000000000        38.4513235419      -13.2342533490       21.9105639279
atom         1.1750500000        2.1536100000        3.1010000000 O         0.0000000000         0.0000000000       146.0290299801      -77.8053166765      -60.2443016960
atom        11.7129800000        2.7881200000        6.3016100000 O         0.0000000000         0.0000000000        22.4173325336     -136.5123202025      -88.2196550556
atom         1.6801800000        0.1407900000        3.7726200000 O         0.0000000000         0.0000000000       124.2301293887      265.0769104856     -105.4598597151
atom        10.3941800000        2.3374800000        4.4826900000 O         0.0000000000         0.0000000000       208.8657005462      -99.4817136465      192.9485380326
atom         3.3118700000        1.5729500000        3.3382100000 O         0.0000000000         0.0000000000      -286.6035417332     -101.5905632422       -5.2879180931
atom        11.5767800000        0.7124000000        5.3051300000 O         0.0000000000         0.0000000000       -82.9035653937      293.3834527921      -12.9232641718
atom        12.7207800000        4.2007600000        3.1333000000 O         0.0000000000         0.0000000000      -159.7630880115       48.2882451193      -29.9890756056
atom         1.6005200000        3.9357700000        6.1202800000 O         0.0000000000         0.0000000000       -13.4101091665      200.3709712968        9.0302777165
atom        12.0865800000        5.7594800000        4.5363600000 O         0.0000000000         0.0000000000      -113.8892973118     -183.0123347824     -231.7226782105
atom        10.5989800000        4.8996700000        3.0927300000 O         0.0000000000         0.0000000000       264.9489185643       47.4829139002      146.2334507351
atom         2.6954500000        4.7516600000        4.3810600000 O         0.0000000000         0.0000000000      -182.7807666411       93.1605598355      242.8108008527
atom         1.5023700000        6.1527300000        5.6569000000 O         0.0000000000         0.0000000000       134.0483094577     -268.2928646814      -94.3267011112
atom         5.7749900000        2.1515600000        6.3593900000 O         0.0000000000         0.0000000000      -186.1474265743      -43.2223094169      -43.2181110088
atom         7.9266800000        2.6409900000        2.4792200000 O         0.0000000000         0.0000000000        37.7794804550     -172.3050783642       36.6082296987
atom         5.2969000000        0.5728900000        1.3466700000 O         0.0000000000         0.0000000000      -111.4371842792      217.9311879105     -164.4281902604
atom         9.4727300000        2.0060100000        1.0780600000 O         0.0000000000         0.0000000000      -184.5442382182     -130.1353656805      215.9858347674
atom         3.5300600000        1.9500600000        6.5207900000 O         0.0000000000         0.0000000000       286.9533949606     -112.4947055286       68.0499660336
atom         8.5828600000        0.4536400000        2.4087500000 O         0.0000000000         0.0000000000        40.2721030256      270.9111655155     -121.9795422404
atom         7.5074700000        4.4975000000        6.4126200000 O         0.0000000000         0.0000000000       151.2873844374       11.0194254205      -13.8668596385
atom         5.6096600000        4.2500900000        2.5044000000 O         0.0000000000         0.0000000000       -17.9466912004      176.3721419573       12.1304255935
atom         8.4352200000        6.3394100000        0.8963900000 O         0.0000000000         0.0000000000        48.4982154099     -259.7725627864     -161.2801576467
atom         9.6639500000        5.3087600000        6.2671700000 O         0.0000000000         0.0000000000      -258.9198229937       -1.3039022717      158.4467409958
atom         4.0128600000        5.0957400000        1.2552600000 O         0.0000000000         0.0000000000       260.7804511085       76.3312171780      176.6762693266
atom         5.5815900000        6.4626000000        2.1782300000 O         0.0000000000         0.0000000000      -160.2109570711     -278.4060889191      -67.7716255092
atom        12.4720800000       11.3008800000        3.6562500000 O         0.0000000000         0.0000000000      -160.3896021554       21.5914582970      -19.6517012664
atom         1.0913300000       10.7120800000        0.6613700000 O         0.0000000000         0.0000000000        41.2703103957      133.8833806972      -18.2560990815
atom        11.7396800000       13.0094800000        2.4239400000 O         0.0000000000         0.0000000000       -76.8745045046     -258.9963444766      182.6569905807
atom         2.9067300000       11.6026800000        1.6671700000 O         0.0000000000         0.0000000000      -270.0349820452       63.2135205689     -154.3571056242
atom        10.2925800000       11.6644800000        3.4237900000 O         0.0000000000         0.0000000000       273.7831698463       87.9111321507      -73.8540105102
atom         1.2495300000       12.8904800000        0.9258200000 O         0.0000000000         0.0000000000       178.8271323861     -245.1195737459       43.1726297368
atom         0.5755200000        8.2845600000        3.6675900000 O         0.0000000000         0.0000000000       174.2525942477       -7.2191656078      -12.8523479300
atom        11.7882800000        8.9949900000        0.7196400000 O         0.0000000000         0.0000000000         2.4965547548     -172.0731487174        1.8733681746
atom         1.2378500000        6.6206700000        2.4115900000 O         0.0000000000         0.0000000000       105.8263725202      253.6943475926      144.9929028143
atom         2.7428500000        8.1258000000        3.0623200000 O         0.0000000000         0.0000000000      -278.8918250471     -135.0884693790      -20.4154982894
atom        10.4271800000        8.0300800000        2.1819200000 O         0.0000000000         0.0000000000       210.3283951970      -55.2758010157     -218.6876177214
atom        11.7432800000        6.7819400000        0.8800000000 O         0.0000000000         0.0000000000      -135.2255944200      251.9300972385      124.0158347910
atom         7.2606800000       11.4025800000        0.2902600000 O         0.0000000000         0.0000000000       156.5888468828       19.0417258613       22.3405430704
atom         4.8506900000       10.8440800000        3.8513000000 O         0.0000000000         0.0000000000        63.7929547442      127.4170380897       78.2540304416
atom         8.2524100000       12.5873800000        5.2224800000 O         0.0000000000         0.0000000000        87.1902429612     -169.2515705489      259.1358547576
atom         3.7894400000       11.5536800000        5.7079700000 O         0.0000000000         0.0000000000       200.4856320161       71.9091876451     -217.2843421235
atom         9.4559900000       11.6520800000        0.0924800000 O         0.0000000000         0.0000000000      -255.4063289166      123.0358160153      -99.4861000659
atom         5.1477800000       12.9469800000        4.7028800000 O         0.0000000000         0.0000000000      -136.2109426273     -271.7884406830       40.7190717755
atom         5.6679400000        9.0141100000        0.0766200000 O         0.0000000000         0.0000000000      -108.3239676299      -75.6124428006       27.5573706119
atom         7.8968800000        9.1052200000        3.8416800000 O         0.0000000000         0.0000000000        11.7984888231     -159.9287019109       33.7526639747
atom         4.9595700000        7.1531700000        5.4435000000 O         0.0000000000         0.0000000000       -55.8364262996      185.5958376158      232.7875078982
atom         3.6145700000        8.2295100000        0.0287800000 O         0.0000000000         0.0000000000       282.1357420288      -66.8800872312      -99.7672571803
atom         9.1344500000        8.2514600000        5.5523700000 O         0.0000000000         0.0000000000      -175.8983729454      -50.1746756019     -258.3647938702
atom         8.0730300000        6.8793700000        4.1821000000 O         0.0000000000         0.0000000000        96.9249924601      289.1191750050       99.0898313139
atom         0.6184100000        1.4499300000        9.5997700000 O         0.0000000000         0.0000000000       160.8184152281      -15.9857828985       30.7781294982
atom        12.0695800000        2.2203500000       12.5850800000 O         0.0000000000         0.0000000000        -7.5597894591     -138.1548557244       -6.2093902190
atom         1.2460800000       12.8452800000       10.5580800000 O         0.0000000000         0.0000000000        77.1691537767      306.8633017773      -32.6762002051
atom        10.4987800000        1.2922000000       11.3419800000 O         0.0000000000         0.0000000000       244.0311506158      -48.0757566752      209.8802066198
atom         2.5693300000        1.3826800000       10.7544800000 O         0.0000000000         0.0000000000      -261.4527242907     -161.1989457133      -88.2736683184
atom        11.7619800000        0.0102200000       12.6690800000 O         0.0000000000         0.0000000000       -91.7969077016      272.1761435315     -139.6867628981
atom        12.7842800000        4.7228200000        9.6357600000 O         0.0000000000         0.0000000000      -161.6523202012       19.9216853424       33.1720977660
atom         1.6065900000        4.2167100000       12.5784800000 O         0.0000000000         0.0000000000       -46.9830639535      173.1457420448       -8.4241759999
atom        12.1792800000        6.4618500000       10.8240800000 O         0.0000000000         0.0000000000       -83.6562707883     -253.1457845667     -126.5231534645
atom        10.6918800000        4.9053600000       10.3524800000 O         0.0000000000         0.0000000000       275.8882855493      137.2681075426       -8.1812343577
atom         2.7723700000        5.4213700000       11.0856800000 O         0.0000000000         0.0000000000      -224.3907777004        8.4493415858      230.6959765953
atom         1.3920900000        6.4914900000       12.4670800000 O         0.0000000000         0.0000000000       135.6032354031     -265.0930899957     -136.1216272265
atom         5.7958700000        2.0710100000       13.0671800000 O         0.0000000000         0.0000000000      -150.4104630440      -15.7765932727       25.4236894127
atom         7.9936900000        2.5429600000        9.4100200000 O         0.0000000000         0.0000000000       -56.2288551774     -150.4664967580      -73.9012683130
atom         4.8847700000        0.5249400000        7.5518100000 O         0.0000000000         0.0000000000       -56.9062153763      253.5807575688     -187.6350009095
atom         9.2211400000        1.8160100000        7.7681200000 O         0.0000000000         0.0000000000      -253.0255155630      -45.0857040454      168.9537328318
atom         3.6452500000        1.6004100000        0.3636800000 O         0.0000000000         0.0000000000       287.7346802227      -35.5475436624       73.0806729530
atom         7.5311600000        0.5750300000        8.4919700000 O         0.0000000000         0.0000000000       169.2118322768      261.0752906863      -12.3319912622
atom         7.4513100000        4.6974100000       13.1056800000 O         0.0000000000         0.0000000000       172.5992603035       14.1925636962      -42.4244489931
atom         5.2257500000        4.1901600000        9.2664100000 O         0.0000000000         0.0000000000        22.1046814381      164.6558667036      -13.9544818168
atom         8.3932100000        5.8636900000        7.9662200000 O         0.0000000000         0.0000000000        56.2716078919     -138.6247524065     -272.9521004343
atom         9.6654200000        4.7162100000        0.0022300000 O         0.0000000000         0.0000000000      -261.9149808352      157.8916207428       63.4695014757