begin
comment generated by PY
lattice        13.3100000000         0.0000000000         0.0000000000
lattice         0.0000000000        13.3100000000         0.0000000000
lattice         0.0000000000         0.0000000000        13.3100000000
atom         4.8344900000        5.4969300000        6.2280000000 H         0.0000000000         0.0000000000         4.4709229785      -88.8245623821      -35.2416864794
atom         0.5257300000        5.1427700000        1.9451700000 H         0.0000000000         0.0000000000       114.4516869422      -62.2017571793       24.9418871387
atom         6.4520300000        9.5338700000        5.9821100000 H         0.0000000000         0.0000000000         8.0204691334       54.0024090289      -21.3647817360
atom         2.9750100000       10.6745000000        6.8474400000 H         0.0000000000         0.0000000000        -5.3071959196      -77.0047559637      -88.9397800481
atom         1.3639500000        3.7198400000        1.3256800000 H         0.0000000000         0.0000000000         0.3423233163      129.7969363771      104.6761491330
atom         2.9203400000        7.5739300000        8.1647500000 H         0.0000000000         0.0000000000        46.4890673675       99.6635720679      -72.3506123352
atom        12.8157000000        4.2703200000        3.8114000000 H         0.0000000000         0.0000000000        98.3548405240       84.1477357839       78.0395779625
atom         3.1236300000        9.0638700000        0.3175100000 H         0.0000000000         0.0000000000       117.2357895223      -63.1766912247     -132.9111214931
atom         1.1288300000       10.8383000000       10.3860000000 H         0.0000000000         0.0000000000      -129.1277578708       78.5582151654       23.7464542827
atom         2.5574700000        1.5028900000       12.8000000000 H         0.0000000000         0.0000000000         2.0521794141       96.4217404144      151.5333444208
atom        10.9781000000        5.8923300000        3.3068100000 H         0.0000000000         0.0000000000       -94.7163397170       22.3563726913      131.8702707219
atom         6.7093400000       10.7924000000        4.9980900000 H         0.0000000000         0.0000000000       -27.1152913560      -65.9667290186      152.2638961493
atom         1.2579400000        2.4834400000       12.4352000000 H         0.0000000000         0.0000000000       -64.1214493972      -12.7845470890       10.1702373424
atom         0.1349000000        7.1859900000        2.6537500000 H         0.0000000000         0.0000000000       -61.1225772398       59.2702046011      -85.1934881602
atom         0.3084400000        2.8530000000       11.5962000000 H         0.0000000000         0.0000000000        -3.4254658397      -47.1674588448       93.8642502555
atom        11.0109000000        5.6092600000        1.2791100000 H         0.0000000000         0.0000000000        83.6719645866      -92.6558909765       70.2228989380
atom         5.3591300000       10.8584000000        7.1295600000 H         0.0000000000         0.0000000000        16.8143330740       49.6141449299      119.1272074131
atom         4.1689100000        2.7394600000        8.4678000000 H         0.0000000000         0.0000000000       -68.5257083005      135.5234154529       40.7685397044
atom        11.9379000000        4.7458500000       10.3406000000 H         0.0000000000         0.0000000000       104.3702674418        2.3194170827       51.3856971897
atom        10.4848000000        2.3300600000        4.4450100000 H         0.0000000000         0.0000000000      -107.2505048727      118.1252325207      -53.1951474197
atom         4.5154100000        5.1772000000        3.0317000000 H         0.0000000000         0.0000000000       -73.5852645887       70.5713968807      -34.8494678781
atom        11.1884000000        4.5639900000        7.3284200000 H         0.0000000000         0.0000000000        -5.6308511991        4.9286383446       30.8648695303
atom        12.3999000000        0.7210500000        9.3009500000 H         0.0000000000         0.0000000000         2.8178357688      -28.7107565414     -152.1478623233
atom         1.9157000000       12.6355000000        5.7408500000 H         0.0000000000         0.0000000000        -7.6214538503       -3.6456275529       35.3187322920
atom        11.4476000000        5.5480200000        8.4155500000 H         0.0000000000         0.0000000000        -2.8146009858      -47.4201355756      -49.7905483470
atom        12.5183000000        5.2171200000        1.3593500000 H         0.0000000000         0.0000000000      -140.6158263639      -27.6546057476       74.2926483589
atom         9.2959500000        4.6574000000        5.3728600000 H         0.0000000000         0.0000000000       -27.3162234854        7.6845882556       93.4549601025
atom         4.7772900000       12.0837000000        4.2589300000 H         0.0000000000         0.0000000000        46.1766533068      -84.5973709164       43.5816608483
atom        12.7249000000       11.1279000000       10.2718000000 H         0.0000000000         0.0000000000       147.0890068925       38.1876060102       47.2983020833
atom         9.2070100000        3.2064800000       11.0445000000 H         0.0000000000         0.0000000000        38.3955329869      -47.6872736117       -0.3257364067
atom        11.3267000000       11.8544000000        7.9219100000 H         0.0000000000         0.0000000000        90.7999023959      -40.8633212250       84.9479072688
atom         2.5299600000       11.5383000000        2.4199200000 H         0.0000000000         0.0000000000        56.5102129440       28.6296852986     -100.3212070202
atom         2.2876200000        5.6288300000       10.2618000000 H         0.0000000000         0.0000000000      -106.1432217006      102.4368309576       86.2726446382
atom        13.2960000000        6.4135400000       12.3859000000 H         0.0000000000         0.0000000000       -52.6212480919      -87.7509539426       82.2906296541
atom        10.0421000000        5.7390300000       12.5300000000 H         0.0000000000         0.0000000000         7.0011429183      -72.0458344204       10.6297004558
atom        11.7527000000        2.8888400000        9.5903200000 H         0.0000000000         0.0000000000       -49.3458867885       44.0589104788      -59.4162303498
atom        10.6176000000        6.7288300000        4.7854700000 H         0.0000000000         0.0000000000       -36.5316163957      -79.5048117775      -69.3381783308
atom        10.7477000000        3.6267400000        4.1390600000 H         0.0000000000         0.0000000000      -154.4063771385      -41.4899753846      -11.7043088615
atom         7.3639400000       12.8296000000        2.0965400000 H         0.0000000000         0.0000000000        31.1543682577       21.7195402940       86.9268042714
atom         4.2038500000        7.9869600000       12.7997000000 H         0.0000000000         0.0000000000       -37.0051712595       47.3051228501       26.3652111934
atom         4.5016400000       12.1242000000        0.1198000000 H         0.0000000000         0.0000000000       -73.4684524421      -26.7313114436       70.4022777476
atom         2.4871700000        3.3096500000        8.0785100000 H         0.0000000000         0.0000000000       -63.6178589492       30.7152393920      -66.3269558301
atom         9.6375400000        4.0796000000       13.2258300000 H         0.0000000000         0.0000000000        43.7875165631      135.1345529103      -56.1939540926
atom         5.8203100000       12.6718000000        9.6258700000 H         0.0000000000         0.0000000000       -42.2865246985      -53.3550977505     -105.7354487341
atom         2.9656200000        3.2689600000        6.2986400000 H         0.0000000000         0.0000000000       109.9356254523       69.9456680489       10.3984143048
atom         4.0816100000        0.2476500000        1.2806200000 H         0.0000000000         0.0000000000       101.6931081965       53.1079634257       -2.3600679637
atom         0.9777700000        4.7219500000        3.9293000000 H         0.0000000000         0.0000000000      -120.6662986520        5.2961373284       41.3852222615
atom         3.5033100000       12.4005000000        7.1820400000 H         0.0000000000         0.0000000000       -72.9081391808       44.5526545688      -56.0661213231
atom         2.5147600000        2.8281500000        0.7876900000 H         0.0000000000         0.0000000000         9.6466187372     -120.1022858581      -66.3334615517
atom        10.4001000000        2.7299700000        8.9903800000 H         0.0000000000         0.0000000000       135.2525955765       95.5350897105        2.1372942664
atom         8.3851900000        8.1761100000        6.1301900000 H         0.0000000000         0.0000000000        98.2179738378      -17.9679345730       68.4582238203
atom        11.5142000000       10.7489000000        9.0835700000 H         0.0000000000         0.0000000000        83.4102330623      121.5178997150      -98.9751779724
atom         0.4536200000       10.7905000000        5.9067100000 H         0.0000000000         0.0000000000       -21.9919737112      -64.7495042714       29.4561744055
atom         8.1511900000        4.4527000000        6.3908200000 H         0.0000000000         0.0000000000       137.5943913726       42.4533201250      -30.7408788010
atom         4.3414100000        3.5011700000        9.6213600000 H         0.0000000000         0.0000000000      -100.1010533225       16.6667406699     -107.2405268184
atom        13.2898000000        5.1948300000       11.1963000000 H         0.0000000000         0.0000000000       -51.1624937205      -19.0342109358      -35.1908927411
atom        12.0594000000        1.5405200000        8.1704300000 H         0.0000000000         0.0000000000        37.7565265144     -111.8578372147       -9.3660296871
atom        13.1950000000        5.3751600000        6.4473500000 H         0.0000000000         0.0000000000        33.8907196085      -91.8585017099       78.1543801106
atom         1.6775400000        8.7278800000        2.2134000000 H         0.0000000000         0.0000000000       -12.4231860922       62.0980151365       82.1180044527
atom         1.7551200000        6.7173600000       11.4204000000 H         0.0000000000         0.0000000000        25.1128281081      -42.5193680810      -32.3847944331
atom        12.6153000000        5.7893700000        0.3233200000 H         0.0000000000         0.0000000000        -8.9774442034       41.0565044034       42.8123243054
atom         9.8748400000        2.2195800000       11.9088000000 H         0.0000000000         0.0000000000       -10.8452755597       58.9441611086     -157.3145589613
atom         1.3375800000       12.8554000000        4.3429400000 H         0.0000000000         0.0000000000       -71.3224791127      -47.9590685123       89.2693314100
atom         4.9487700000        7.4363300000        1.8442800000 H         0.0000000000         0.0000000000         2.1990199271      -38.3629118730      -45.6097161436
atom         4.2793800000        6.7317100000        9.6340400000 C         0.0000000000         0.0000000000       -33.9408663834       -6.2475978611      128.9456987629
atom         3.5786200000        6.5677200000        1.6808000000 C         0.0000000000         0.0000000000       -58.4778950534       14.4639299802       88.9535120317
atom        10.6808000000       10.7059000000        3.6410000000 C         0.0000000000         0.0000000000        64.9859096752      -14.8028869408        5.3665227736
atom         5.0879200000       11.0662000000        4.4825700000 C         0.0000000000         0.0000000000       -94.6212929909       48.5997143777     -132.9324817938
atom         2.4412000000        9.3209200000        9.1976800000 C         0.0000000000         0.0000000000        -7.2287185895       37.5673672014       63.8677601553
atom         4.7612000000        4.6057500000        5.7200200000 C         0.0000000000         0.0000000000       -95.2283613376      -97.6282762787     -124.5038264385
atom         5.7397000000       10.3813000000       12.1751000000 C         0.0000000000         0.0000000000       135.5774948342       -1.5657605796      -25.9470334423
atom         1.1051300000       12.8013000000        1.6716900000 C         0.0000000000         0.0000000000        97.5473708387       22.9956815906       33.5646002983
atom         9.6089000000        5.5796300000       10.3537000000 C         0.0000000000         0.0000000000       -88.3311742968     -123.9306480257     -148.0764316841
atom        10.6251000000        8.5021400000       11.9358000000 C         0.0000000000         0.0000000000        35.4984253753      113.1230426904      -79.0898583755
atom         7.6160300000       10.5484000000        1.2616200000 C         0.0000000000         0.0000000000        10.1644199390       92.6156211722      -54.2056935814
atom         9.2698400000        7.9481500000        6.7952000000 C         0.0000000000         0.0000000000        76.7843839529      -93.7460891561     -127.6045123210
atom        11.5989000000        7.7997300000        1.8678900000 C         0.0000000000         0.0000000000       214.8302002699       16.8181088408      -10.4584924596
atom         7.3963000000        1.8585600000        8.6341200000 C         0.0000000000         0.0000000000        22.6876239499       21.3748574481     -138.4153784739
atom         7.7183000000        8.3430900000        3.8536800000 C         0.0000000000         0.0000000000         5.5279304796      105.8778777314      115.5430093213
atom         5.6597200000       12.4013000000        8.5460800000 C         0.0000000000         0.0000000000        65.6683843912      -43.7559447148      -20.2070425584
atom         1.8241100000       13.2313000000        7.5392200000 C         0.0000000000         0.0000000000       171.1056398872     -231.5557488058       55.4049471113
atom         7.6189100000        3.9785100000        2.0729000000 C         0.0000000000         0.0000000000      -101.6712333995      -77.8658969009      -48.6229541746
atom        12.9611000000        2.0676200000        2.1934500000 C         0.0000000000         0.0000000000       -11.4971930702       62.7102904112       22.5725436145
atom         3.6912300000        0.5410600000       11.3385000000 C         0.0000000000         0.0000000000       -90.0121109117       61.3712205984       81.4989160319
atom         8.0617200000        9.6653000000        9.5448100000 C         0.0000000000         0.0000000000       -41.6296071173     -134.3816010748      206.5912811931
atom        12.8933000000       12.9686000000        5.3221500000 C         0.0000000000         0.0000000000      -118.6159528565      -12.7738888743      191.0761007511
atom        12.0569000000        2.1009900000        5.1783000000 C         0.0000000000         0.0000000000       -61.5273130123     -204.8694083032        3.8199743771
atom         1.3187300000        4.8380500000        7.5717300000 C         0.0000000000         0.0000000000       -76.8967270077       -4.2930501407      -49.2425378567
atom         7.6721000000        7.4895100000        0.2222400000 C         0.0000000000         0.0000000000       -28.0444140341      -18.5325212082      135.7559305247
atom        12.7110000000        8.9239300000        5.5469700000 C         0.0000000000         0.0000000000        43.7624867526      163.9931649620      -98.0441928367
atom         2.3981500000        7.1142500000        4.6220900000 C         0.0000000000         0.0000000000       -63.5168710833      -92.0428525981      -67.7265388483
atom         8.3207600000        2.1695500000        5.5146900000 C         0.0000000000         0.0000000000       -49.9790464295      -77.0500420998      -85.7506676499
atom         2.9971600000        9.8882200000        5.9679300000 C         0.0000000000         0.0000000000       131.7758921594      143.3469120300       47.9871661151
atom         2.7259300000        8.7160000000        6.4758600000 C         0.0000000000         0.0000000000       -76.5570818343      -97.6042653000       14.2918758485
atom         5.4847500000       10.5688000000        3.2585300000 C         0.0000000000         0.0000000000      -239.7623459513     -166.6144979387       12.6299085880
atom         7.1885300000        7.2769100000        8.0343800000 C         0.0000000000         0.0000000000       -57.1161117985       29.4860041534        0.1468085258
atom         2.6784000000        0.8323400000        4.0019400000 C         0.0000000000         0.0000000000       169.6240016153       64.9391316937       24.9300406514
atom         5.2550500000        0.9694700000        1.2672500000 C         0.0000000000         0.0000000000         9.2491171213     -116.4988060744       18.4315547316
atom         8.5858300000       12.7066000000       11.3794000000 C         0.0000000000         0.0000000000       -92.1078043405      162.0800955231      -96.1467766005
atom         3.5598900000        4.0353600000       12.4429000000 C         0.0000000000         0.0000000000        76.2008056068       49.5187660116      -27.6158288861
atom         0.6859000000       12.4714000000        5.1431400000 C         0.0000000000         0.0000000000       109.6925290931       60.1135712521      -88.2682526882
atom         4.2111600000       10.2376000000        5.1537200000 C         0.0000000000         0.0000000000        21.6230550452     -221.4854469612      -16.7106644600
atom         6.5670900000        5.7135200000        4.2792300000 C         0.0000000000         0.0000000000       -42.8361617302       54.6110022957       19.3142637653
atom         4.8454700000        2.0397100000        2.2422500000 C         0.0000000000         0.0000000000       156.0651589093      -32.2718676137       61.2865870502
atom        12.0906000000       12.8679000000        6.2563900000 O         0.0000000000         0.0000000000        83.5383977857        5.9409579116     -147.7604959671
atom         9.0954100000        4.7439800000        6.2952600000 O         0.0000000000         0.0000000000      -102.2509577790      -29.9640080134      -55.7387940177
atom         4.6984900000        8.9614700000        5.0443100000 O         0.0000000000         0.0000000000       -78.9556208462      155.7309089114       30.6101935936
atom         4.3160900000        3.0801100000        2.3444900000 O         0.0000000000         0.0000000000        20.9505131576     -108.5426375228      -32.0558611062
atom        11.2547000000        3.3624000000        8.9587600000 O         0.0000000000         0.0000000000       -74.1456992843     -152.3509213610       60.0585206576
atom         6.9978500000        5.5613900000       12.4843000000 O         0.0000000000         0.0000000000      -330.7466645585       38.8025930970     -147.5333326785
atom        10.2764000000        6.0201700000        4.1367000000 O         0.0000000000         0.0000000000       131.7960229035       47.5857367200      -63.2728702556
atom         4.7331600000        6.7980500000        1.2272900000 O         0.0000000000         0.0000000000       -47.2676939812       35.4123249581       43.1850806928
atom         4.0071900000        0.1712900000       12.4332000000 O         0.0000000000         0.0000000000       -24.4733463320       34.2881291325     -178.3195307973
atom         3.7318600000        5.7357100000        2.8742100000 O         0.0000000000         0.0000000000         2.6578483707       36.1905518353     -122.8126501498
atom         1.5878100000        6.2631800000       10.6700000000 O         0.0000000000         0.0000000000        71.4281957994      -64.5074191663      -44.0426579698
atom         6.9353700000       10.6339000000        2.2682100000 O         0.0000000000         0.0000000000       158.1782812576      -20.7885429029     -178.1122577449
atom         8.3197600000        4.5548600000        2.7019800000 O         0.0000000000         0.0000000000       -16.5540494482      -22.2645562165      -33.1694992293
atom         1.6547900000       13.1094000000        2.6151500000 O         0.0000000000         0.0000000000       -82.8634846421      -12.5756501606      -53.6333941897
atom         8.2406100000       10.7478000000        0.2254400000 O         0.0000000000         0.0000000000      -123.8381101697      -60.3000642817      246.0305743926
atom         3.3860900000        6.6675100000        5.0310200000 O         0.0000000000         0.0000000000       -99.5902097822       53.3117920733      -50.2767358971
atom         0.1339400000        8.2056400000        8.0811900000 O         0.0000000000         0.0000000000       -37.2158586639      296.7629042492     -160.6497192079
atom         3.6303400000        3.0295400000       11.7914000000 O         0.0000000000         0.0000000000       -13.1300475169      223.0514494762      134.8203533454
atom         1.1449600000       12.3908000000        0.6570200000 O         0.0000000000         0.0000000000       -54.9498194474        4.9129738005       -6.8298617971
atom         6.8189900000        3.3456300000        1.4945300000 O         0.0000000000         0.0000000000       128.9862931216       99.4910166718       73.0729073774
atom         3.7315000000        5.1231200000       12.9614000000 O         0.0000000000         0.0000000000       -45.2329953757     -231.8273550936      -99.7535947773
atom         8.0737200000       10.7219000000        9.2459800000 O         0.0000000000         0.0000000000         8.1236953839      -14.7852013533      -33.6026871711
atom        12.3608000000        0.6040400000        8.1185600000 O         0.0000000000         0.0000000000       -34.4176236574      155.4496062764      192.1946919362
atom         6.3268300000        6.0850100000        3.1577200000 O         0.0000000000         0.0000000000        64.4622516772      -70.6207089368      196.4987618155
atom        11.1947000000        7.4673400000        9.0291400000 O         0.0000000000         0.0000000000       -80.2642248787      255.2326437552        1.8554777977
atom         7.5404400000        0.0088000000       11.2047000000 O         0.0000000000         0.0000000000       184.3478343988     -142.7206120780       56.3736720884
atom         0.3354000000       11.4262000000       10.7195000000 O         0.0000000000         0.0000000000        -7.3436180579     -126.7222243537      -66.3023651309
atom        10.3957000000        7.3934100000        6.1487100000 O         0.0000000000         0.0000000000      -182.1361770317      109.2885896524      116.5829684452
atom         3.1030800000        1.3565900000       10.7269000000 O         0.0000000000         0.0000000000        98.0933522899     -153.1658522815       51.3922764264
atom         8.7208800000        6.9196900000        0.7240600000 O         0.0000000000         0.0000000000      -258.4237907968      149.1681082788     -133.8757392563
atom        11.6025000000        5.0007400000        1.8364000000 O         0.0000000000         0.0000000000        57.7164031656      114.3330916757     -146.5819182714
atom         9.6908300000       12.5287000000       11.2324000000 O         0.0000000000         0.0000000000       -92.3105433394      -18.1919601917       38.4820762096
atom         6.5956400000        8.2869500000        7.9432000000 O         0.0000000000         0.0000000000        81.6112859868     -137.4692908149       12.3144784902
atom        11.8100000000        8.1389700000       11.5169000000 O         0.0000000000         0.0000000000      -284.7452391314       82.9599068376      111.3070456712
atom         4.3603000000        6.9905800000       10.7527000000 O         0.0000000000         0.0000000000        18.0809956852      -23.7353569549     -146.8353652245
atom         8.9173600000        8.5935300000        3.9776900000 O         0.0000000000         0.0000000000      -260.6082659330      -63.4334054484      -45.8472209758
atom         6.1242200000       13.1422000000        7.7889300000 O         0.0000000000         0.0000000000       -44.2834344817      -48.7190797645       44.1121208191
atom         8.9211000000        4.8370600000        9.5697300000 O         0.0000000000         0.0000000000       161.4598422263      185.0560615937      206.2248378792
atom         2.8887500000        9.6356500000        3.2424800000 O         0.0000000000         0.0000000000      -198.2675779324      -16.9524467035      -11.6879989991
atom         9.7396700000        5.0395100000       13.0043000000 O         0.0000000000         0.0000000000       -42.5837425510      -89.2516856846       56.0358883748
atom         6.1297000000        4.1614800000       10.0455000000 O         0.0000000000         0.0000000000        82.4536863288      -97.8960295631     -253.3302962937
atom        11.9900000000        0.8278700000        4.5588300000 O         0.0000000000         0.0000000000        50.2037156806      180.5377039000       88.7185130035
atom        12.3427000000        2.6216600000        3.0344300000 O         0.0000000000         0.0000000000       103.6406296525      -90.8587986339     -165.0471177921
atom         6.2321500000        0.3196400000        0.7274900000 O         0.0000000000         0.0000000000      -156.7300394544      131.8154161398       89.1983749151
atom         3.6850800000        3.6089900000        8.8237700000 O         0.0000000000         0.0000000000       183.7641443016     -156.6034438622       66.5773928728
atom         5.6495900000        1.4310200000        3.1248900000 O         0.0000000000         0.0000000000      -119.2202105925       60.2810767690     -139.3580135357
atom         7.2648400000       12.8121000000        4.0629600000 O         0.0000000000         0.0000000000       163.9791988224       36.7231304683     -294.5966429865
atom         4.0015000000        3.5808600000        6.2030100000 O         0.0000000000         0.0000000000       -28.6256984663       90.7768195914      -31.1774025814
atom        11.7386000000        2.5088900000        6.1701500000 O         0.0000000000         0.0000000000        45.3939403321      -14.2499101927      -76.8124549989
atom        10.8088000000       11.1524000000        4.7702100000 O         0.0000000000         0.0000000000       -36.3855930621      -97.5545155682     -251.6622665516
atom         3.7345300000        0.2916100000        3.7272300000 O         0.0000000000         0.0000000000      -222.7149154435       75.5407999796       47.7480927172
atom        10.7381000000       10.2447000000        2.5025200000 O         0.0000000000         0.0000000000       -25.9588129623      113.2573790967      248.0337012523
atom         6.6114600000       10.4249000000        5.9914000000 O         0.0000000000         0.0000000000        40.4881974142       15.9702735049      -85.9613931695
atom         1.4000700000        4.6919900000        2.1610700000 O         0.0000000000         0.0000000000      -114.9319730180      -70.8545785617     -140.0314132217
atom         7.5511100000        1.7427800000        4.6972300000 O         0.0000000000         0.0000000000       145.3930904997       93.6374571460      154.2021216987
atom         2.5472800000        7.1793500000        1.3555200000 O         0.0000000000         0.0000000000       163.7077729669     -114.4588655193       59.9228628528
atom         0.2955500000        1.6492200000        1.3291300000 O         0.0000000000         0.0000000000      -100.8197204467       36.7146710997      129.3792649661
atom         2.6501900000        1.8848200000        0.4892200000 O         0.0000000000         0.0000000000       -23.0768204910       27.2710438430      -69.7765992908
atom        11.4832000000        5.3527000000        7.5444200000 O         0.0000000000         0.0000000000        -3.2737048121       63.2458588521       23.6338497032
atom         6.5027300000        8.0500400000        0.1622300000 O         0.0000000000         0.0000000000       283.6364364272     -120.3344554715       -1.8864423397
atom         9.8317400000        2.5626600000       10.9073000000 O         0.0000000000         0.0000000000       -30.3884204616      -22.8707239379      174.9200512140
atom         3.8320900000        8.8131800000       12.7109000000 O         0.0000000000         0.0000000000       -81.8696387133       31.3037594047      109.0623661031
atom         1.6133000000        5.9080600000        8.0484400000 O         0.0000000000         0.0000000000        -6.3496600839     -166.9908576416      -54.5992034550
atom         9.1163500000        7.9586200000        7.9736700000 O         0.0000000000         0.0000000000        30.4704500884       27.9298316620      -43.1162564089
atom         6.4521600000        8.4711100000        4.1397000000 O         0.0000000000         0.0000000000       274.5265093079      -45.2932267915      -84.1684554828
atom         0.1127200000        4.8178900000        4.3955500000 O         0.0000000000         0.0000000000        13.0250180374      -88.3361217633     -123.9293313683
atom         1.0787300000        8.8055100000       11.5766000000 O         0.0000000000         0.0000000000        38.9252288802      289.9757840458      139.7748918312
atom         9.8135400000        3.1765900000        4.1000700000 O         0.0000000000         0.0000000000       265.0028863509      -65.0862880729       38.5971253274
atom         1.7767800000        3.5070400000        7.3892200000 O         0.0000000000         0.0000000000        85.1372795809       81.8864478224      109.7735138145
atom         8.5694500000        1.3965500000        8.5121700000 O         0.0000000000         0.0000000000      -253.9828950470       93.3300338178       50.4839563431