begin
comment generated by PY
lattice        13.3100000000         0.0000000000         0.0000000000
lattice         0.0000000000        13.3100000000         0.0000000000
lattice         0.0000000000         0.0000000000        13.3100000000
atom        11.5625000000       13.1724000000        3.7618800000 H         0.0000000000         0.0000000000        50.0092798805      -35.2671723893       20.2208134399
atom         7.5170900000        5.0642600000       11.7914000000 H         0.0000000000         0.0000000000       -71.9989759406       -5.5214077437       31.8994729261
atom         0.6530000000        4.3486300000        2.5180100000 H         0.0000000000         0.0000000000       120.7642574761       -4.3628585011       68.6658562331
atom         2.1484300000        4.9914100000        3.0494100000 H         0.0000000000         0.0000000000      -104.0752457037     -121.6784973874      -16.7277502928
atom         7.2797400000        6.9016700000        0.1495100000 H         0.0000000000         0.0000000000       -72.2596853178      -19.0894872168       89.7357199591
atom         3.2819700000        1.3195200000        0.6417800000 H         0.0000000000         0.0000000000        61.6983283815      -74.9828216657      -18.4366852082
atom         3.8286100000        6.2294800000        1.4734400000 H         0.0000000000         0.0000000000        12.4176711427      -25.2744848377      -35.9086893571
atom        13.0109000000       12.5561000000        3.9875400000 H         0.0000000000         0.0000000000      -143.7702711905       20.8200213863       33.5009955631
atom         2.9921600000        2.4848600000        8.7440400000 H         0.0000000000         0.0000000000        51.1377545239     -108.5235093331      -62.0157129445
atom         6.6977200000        8.0790100000        5.5153200000 H         0.0000000000         0.0000000000        75.9203869841       63.3302673732       61.4127130175
atom         6.0340900000        6.1477300000        0.7377200000 H         0.0000000000         0.0000000000       113.5912335156      110.5155046755       28.9475901773
atom        11.7480000000       11.9980000000        2.4117100000 H         0.0000000000         0.0000000000       -35.3987014747      -65.4247758785       24.6849318558
atom         3.2113300000        3.3312000000        1.2459100000 H         0.0000000000         0.0000000000        80.8701562072      -27.9116047574      101.9826259259
atom         9.3664900000       11.6733000000        9.5702700000 H         0.0000000000         0.0000000000        36.1007227745       -9.6206497448       98.0806346617
atom        10.4294000000       12.5360000000        8.0883000000 H         0.0000000000         0.0000000000       -32.4206364411        3.7836026797      -98.1704539306
atom         2.7814100000       12.4881000000        1.6946700000 H         0.0000000000         0.0000000000        27.4553097818       16.3244531931       99.7723107995
atom         5.8928300000        5.0857000000       12.1612000000 H         0.0000000000         0.0000000000       173.5671544929      -27.4299387501       23.7430129037
atom         2.4107700000        4.1868900000        7.1544200000 H         0.0000000000         0.0000000000      -138.1086759365       85.4188701936       28.8392477193
atom         2.8125700000        1.7617200000        3.6813900000 H         0.0000000000         0.0000000000        33.2317630946      -31.3386649807       38.2812224809
atom         1.2560700000        5.0397700000        6.6668400000 H         0.0000000000         0.0000000000        23.5772767598      -20.9982981551       34.7819163714
atom        10.7567000000        4.7408500000       13.0792000000 H         0.0000000000         0.0000000000        19.4144236445       14.5702284005       91.3622159433
atom        10.4571000000       11.3955000000        2.7103900000 H         0.0000000000         0.0000000000       109.6672217671      -15.3785371596      -17.8970530680
atom         0.1739000000        7.3538300000        8.5924200000 H         0.0000000000         0.0000000000        -8.6479480161       13.5504174325      -95.8387919482
atom         4.7194700000        2.9317400000       10.7840000000 H         0.0000000000         0.0000000000       124.2575525623      -33.0864535486       51.6118252078
atom         9.6333000000       11.1545000000       11.0067000000 H         0.0000000000         0.0000000000        -8.2730411007       19.2615292839      -47.4070676851
atom         4.0956600000        5.0053000000       12.1831000000 H         0.0000000000         0.0000000000       -87.3619974266      -97.8365100914       10.2705562237
atom         6.2580200000        3.8528700000        2.4154300000 H         0.0000000000         0.0000000000        58.4048860190       30.1339753825     -165.4696581523
atom         0.8497000000        7.2504600000       11.0342000000 H         0.0000000000         0.0000000000        18.5886809312       28.5436235108     -117.3949570686
atom         5.1350500000        4.8351600000        7.4717100000 H         0.0000000000         0.0000000000       -13.1692694404     -105.2109728126      -70.9114297816
atom         2.6613000000        3.8119400000        4.7662500000 H         0.0000000000         0.0000000000         1.9041291016     -135.9417304371       83.1262731345
atom         3.7215000000        5.1414200000        0.4109300000 H         0.0000000000         0.0000000000        62.5761449090      128.3741694394       48.0917322161
atom         7.0267300000        0.9850700000        8.2734400000 H         0.0000000000         0.0000000000       -34.4994466272       70.5953465737      -40.5648079758
atom        11.9901000000        6.7338900000        5.1916400000 H         0.0000000000         0.0000000000       -15.5303293741     -136.3404592574      110.3315581752
atom         7.1130000000        1.7865900000        9.8535300000 H         0.0000000000         0.0000000000      -133.6971786375      -16.5643630571       18.6295964188
atom         4.0159400000       12.0759000000        3.0914600000 H         0.0000000000         0.0000000000      -116.3487930047       43.6055945250      -55.6287843533
atom        10.9745000000        5.4751200000        5.6735100000 H         0.0000000000         0.0000000000       152.8353860204       67.9618536451       25.9449024981
atom         1.2295600000        2.4919600000       12.6676000000 H         0.0000000000         0.0000000000        47.3379423583      -20.9904514332       53.4335594629
atom         7.4215100000        6.0072400000        2.5974900000 H         0.0000000000         0.0000000000      -107.3675191649       54.3531414554      101.5853702595
atom        10.3006000000       11.3013000000        4.4978900000 H         0.0000000000         0.0000000000       -48.3726868534      -60.0545277690      113.4879438124
atom        11.8355000000       11.7201000000        0.1116100000 H         0.0000000000         0.0000000000       -68.1047263175     -144.9863050311      -63.8132340599
atom         4.6720200000        3.1469300000        1.9073300000 H         0.0000000000         0.0000000000      -118.3944273836        4.5001936226       -8.0951730243
atom         7.3501000000        4.0348000000        1.0206200000 H         0.0000000000         0.0000000000       -92.4444919223        1.1320035522       63.2490703694
atom         5.9430800000        5.8390900000        3.0811700000 H         0.0000000000         0.0000000000       137.1581260424       87.8753490679       38.7584761925
atom         4.1732300000        8.9277200000        6.9467800000 H         0.0000000000         0.0000000000        29.6899149173       62.6589220212      -37.9303608320
atom         2.5002500000        6.0132200000       12.3540000000 H         0.0000000000         0.0000000000      -157.5836415345       48.0833259818      -23.0629761318
atom         2.5254200000       11.1862000000        2.5956300000 H         0.0000000000         0.0000000000        21.6834106285      136.9722503864       37.4315363746
atom         2.3330600000        2.5060700000       11.8331000000 H         0.0000000000         0.0000000000       -23.2958308090      -26.2790489084      169.7499315100
atom         4.2390400000        5.3214200000        4.0973700000 H         0.0000000000         0.0000000000       -28.1389116040      112.5220479770      -14.8747144360
atom        11.1954000000        7.3827600000       11.1134000000 H         0.0000000000         0.0000000000        41.4674559923        6.9693471854       66.8818972919
atom         1.4598200000        8.2600900000       10.4548000000 H         0.0000000000         0.0000000000       -37.4764498936      -47.3941893777      -32.0479242192
atom         3.8477200000       11.7079000000       12.6842000000 H         0.0000000000         0.0000000000        37.5514372383        2.1539239247      -99.7063223268
atom        11.8206000000        7.4546100000       12.6727000000 H         0.0000000000         0.0000000000       -17.0069825245      -34.2679589664     -166.3853508561
atom         1.1192000000        6.0388800000       13.0636000000 H         0.0000000000         0.0000000000        54.2314995180       46.5669884751     -127.0207237654
atom        11.1524000000        1.1981400000        7.0067800000 H         0.0000000000         0.0000000000       -78.2903395869       61.3981173861       -8.3955856938
atom         3.3785900000        3.7720600000       12.8929000000 H         0.0000000000         0.0000000000         5.2115392607       48.5956913604      -57.5634878487
atom         4.6983900000        3.5692800000        7.8806800000 H         0.0000000000         0.0000000000        41.8447034537       65.4945228226     -151.4334815329
atom         4.0103400000        1.7695900000        6.2898100000 H         0.0000000000         0.0000000000        60.6251778496        4.5522955591       97.8646721877
atom         1.6457600000        2.6771600000        5.2297700000 H         0.0000000000         0.0000000000       168.3340078234       41.2140935284       11.2978729542
atom        11.2874000000       10.9335000000       12.0771000000 H         0.0000000000         0.0000000000        20.7609705983       -8.0410628685      137.4834396541
atom         3.5314000000        6.6748400000        4.7169500000 H         0.0000000000         0.0000000000        90.8517610016      -89.1911042930     -127.9820321184
atom         5.0642400000       10.0343000000        6.3550700000 H         0.0000000000         0.0000000000       -70.3700327916      -55.7130172161       24.7477305003
atom         0.1513700000        7.0111300000        6.9840900000 H         0.0000000000         0.0000000000       -30.0252289496       75.4118852447      127.6337416852
atom         8.7829700000       12.5506000000        0.0876000000 H         0.0000000000         0.0000000000       -51.4561221051      -18.5324162537      -76.0868326911
atom         8.7177100000       10.7202000000        7.4369100000 H         0.0000000000         0.0000000000       102.9808718789       50.8739635842      -55.8315361299
atom        13.2854000000       12.5298000000       11.4314000000 C         0.0000000000         0.0000000000        48.9399978601      126.1545141059     -221.1655424608
atom        10.2122000000        6.0653600000       10.4053000000 C         0.0000000000         0.0000000000       105.3054964651      -39.8863752613      -45.1505149231
atom         9.1084900000        8.8816000000        0.5596100000 C         0.0000000000         0.0000000000        10.4221425990      -39.9016036347       11.5961953126
atom         8.3942000000        8.5423400000       10.9554000000 C         0.0000000000         0.0000000000       104.4108077939        7.0959147974      -86.3375119834
atom        11.6532000000        0.9960300000        1.0239500000 C         0.0000000000         0.0000000000       -49.2974045001       30.2863583191      159.4477068546
atom         6.1549100000       12.9695000000       11.3751000000 C         0.0000000000         0.0000000000        -7.6878910443       42.1532099319       -7.8254424288
atom         5.7552400000        9.6376200000        0.6750300000 C         0.0000000000         0.0000000000        27.2827357675       25.2791593815      -53.8013799747
atom         7.4777400000       12.9569000000       11.8303000000 C         0.0000000000         0.0000000000        31.7832821966       22.7330095079      -59.9019166772
atom         5.0179800000       12.9612000000       12.0422000000 C         0.0000000000         0.0000000000       -56.2508656655      -14.5486473171      -19.4013112025
atom        10.9992000000        8.4706100000        4.0988300000 C         0.0000000000         0.0000000000       -94.3585141222      -63.7256900412     -198.4178375961
atom         3.5481000000        1.5645800000        8.3494700000 C         0.0000000000         0.0000000000        50.9756022763       38.5079393596      -38.1656344208
atom         4.5203300000        0.8595300000       12.6352000000 C         0.0000000000         0.0000000000        55.9173482639     -166.5198586315       55.8148019252
atom        13.0414000000        4.4767100000        9.3341900000 C         0.0000000000         0.0000000000        74.7307250900       47.8241445862      -96.0930581614
atom         4.5244800000        1.5486500000        7.2834400000 C         0.0000000000         0.0000000000       -75.7161325945      -87.0851553683      -41.0161356317
atom         3.3938500000        0.4983400000        9.0051300000 C         0.0000000000         0.0000000000        27.1484855341      -77.9409113725      210.9163101558
atom         5.6324200000        0.7694300000        7.1743900000 C         0.0000000000         0.0000000000      -203.7033861263      -31.8811739625       42.3654192458
atom         2.5007900000        8.0520100000        2.8870200000 C         0.0000000000         0.0000000000       -85.0494935297       65.4354774700      -76.3099729292
atom         7.2247700000       12.2020000000        4.8553400000 C         0.0000000000         0.0000000000       -14.8332865609       -1.9865682811      140.3127203818
atom         0.7427400000        6.6079900000        4.2811000000 C         0.0000000000         0.0000000000        81.4524074513     -178.6427918287      149.8162031036
atom         5.1845200000       12.7002000000        7.5373500000 C         0.0000000000         0.0000000000       127.9259686603      -28.9658945279       98.0866003072
atom         5.5833400000        2.3060700000       11.1668000000 C         0.0000000000         0.0000000000      -122.2112663446        4.4544023700       -0.2110493265
atom        10.1583000000        2.7428700000       10.8306000000 C         0.0000000000         0.0000000000      -175.8797224126       -7.3890288673      116.0206826850
atom         6.0390400000        1.5208200000       10.2497000000 C         0.0000000000         0.0000000000        92.0356674952      -57.9634797933       46.5495825037
atom         8.3003400000        8.4604000000        7.0029400000 C         0.0000000000         0.0000000000        41.6622209035      -71.0113742437      -33.6332965975
atom         2.0298800000       10.8532000000        9.2570000000 C         0.0000000000         0.0000000000      -129.7611923229        2.5548378027      -80.1973208357
atom         2.4888200000       13.2560000000        3.7369400000 C         0.0000000000         0.0000000000       -77.6805712664       -2.9340605209      109.2588227164
atom         2.9384600000        9.2263300000       13.1686000000 C         0.0000000000         0.0000000000        74.5288537122      -99.1933565843      -43.4980379365
atom         4.4183500000        7.3821000000       10.5090000000 C         0.0000000000         0.0000000000       -89.2648939221       26.0405309549      -37.0345833277
atom         2.9207300000       12.3805000000        2.7344100000 C         0.0000000000         0.0000000000        47.4453280906     -119.4878638093       -9.2446000313
atom         6.2820000000        9.4147700000        9.2608900000 C         0.0000000000         0.0000000000       -88.6501535394      -98.6269805638      -32.0445098693
atom         8.9570200000        1.5276600000        7.5863000000 C         0.0000000000         0.0000000000        99.2076874092      -26.5272996991      -45.7199118996
atom        11.5409000000        9.3405200000        9.8582800000 C         0.0000000000         0.0000000000        84.0811818782      -76.8697443828       71.7931965011
atom         7.8046600000        5.8318100000        5.2276900000 C         0.0000000000         0.0000000000       -37.1796904889      -25.1500833443       12.6463671450
atom         7.9751900000        2.4256200000        7.2737100000 C         0.0000000000         0.0000000000         5.6475165523      111.7296192454       21.4819471579
atom         8.8534200000        0.1250100000        8.0259200000 C         0.0000000000         0.0000000000       -78.1721224532     -155.0371099193     -184.3886850844
atom        12.8948000000       10.6486000000        6.1218400000 C         0.0000000000         0.0000000000        99.8854039769       29.2338358026      -62.3751852199
atom        12.5710000000       11.1601000000        7.2301700000 C         0.0000000000         0.0000000000       -68.4376676884      -86.5671031120       53.9390147569
atom         3.0299000000        7.3190900000        7.6330600000 C         0.0000000000         0.0000000000       104.4543454434       24.0705426641      -64.2723628631
atom         0.2345100000       10.3801000000        4.9629000000 C         0.0000000000         0.0000000000      -145.3302907156       45.2175841674      -26.2722026517
atom         3.0044500000        4.1113800000        9.9761300000 C         0.0000000000         0.0000000000       -11.0210327702      -26.7069361005      -70.0227029905
atom         9.9681400000        5.6652600000       11.4861000000 O         0.0000000000         0.0000000000         8.8457987232       51.7818946615     -172.8849838963
atom         7.2138400000        8.7524500000        5.9890100000 O         0.0000000000         0.0000000000        24.4251313005      -60.4149605163       57.5751316466
atom        12.0265000000       12.5952000000        4.2751700000 O         0.0000000000         0.0000000000       100.5197339771       41.0773765311      -33.8033097874
atom         1.0833000000        1.5860900000        2.6529700000 O         0.0000000000         0.0000000000       -45.4195130482     -103.5098485733     -357.2980697318
atom         1.5276900000        4.1622500000        3.0256500000 O         0.0000000000         0.0000000000       -28.5778831118      126.5968749280      -63.6460313140
atom         9.2211100000        4.8844800000        2.2063000000 O         0.0000000000         0.0000000000       225.6331247080       52.3165999816     -144.7649381442
atom         8.7119400000        9.6306100000       11.1043000000 O         0.0000000000         0.0000000000       -70.7973925476     -111.8573570961       18.0215259296
atom         1.1150400000       11.5573000000        8.7196300000 O         0.0000000000         0.0000000000       225.4953550591     -146.3935324324      130.0831596212
atom         8.0159900000       11.9359000000       12.5867000000 O         0.0000000000         0.0000000000        -6.7289741837      186.4389476153        3.4867401694
atom         6.7987900000        6.3629500000        3.3599600000 O         0.0000000000         0.0000000000       -41.8692189391     -139.1991350249     -147.7664342608
atom         0.7232100000        4.9246400000        9.8044900000 O         0.0000000000         0.0000000000      -226.1561005942      -61.7961784970      -57.5251595523
atom        10.4485000000        8.1667500000        3.0075600000 O         0.0000000000         0.0000000000       123.0446615534       71.7949781982      248.3066818903
atom         9.7710100000       11.8004000000       10.4104000000 O         0.0000000000         0.0000000000       -16.0452699699       -0.1852833035      -62.0344317220
atom        12.2619000000        4.1066100000        8.5307900000 O         0.0000000000         0.0000000000       114.6859164411       47.6535261282      149.5060866300
atom        12.6652000000        9.4628000000       10.3542000000 O         0.0000000000         0.0000000000      -245.4865683144        1.6386707411     -116.3171692805
atom         5.5651800000        0.1381300000        3.4124300000 O         0.0000000000         0.0000000000       135.1708535832        3.1734513660     -237.1086554548
atom         2.6721800000        9.9572200000        9.6263700000 O         0.0000000000         0.0000000000       -89.9936360067      160.7494243894      -46.4658696914
atom         3.6216300000        7.9108200000        9.8829200000 O         0.0000000000         0.0000000000       108.7453120079      -62.5892555483       69.7515396380
atom         4.3106100000       11.7928000000       11.8351000000 O         0.0000000000         0.0000000000        23.4060248629      116.1668756507      162.1230066283
atom         2.7315400000        2.9212100000        5.3044300000 O         0.0000000000         0.0000000000      -181.3685669302      114.3197904324      -82.0519762499
atom        11.2147000000        3.0588000000       10.6480000000 O         0.0000000000         0.0000000000       -74.0455803284      -24.7084365101       -0.5794337080
atom         6.4483800000        4.0175800000        1.3518600000 O         0.0000000000         0.0000000000        20.2300484344      -33.6480029630      117.7587700950
atom        11.4373000000        0.7825500000        9.0661000000 O         0.0000000000         0.0000000000       119.7237738460       15.6894569725      272.6352364589
atom         6.7459100000        6.8966700000        0.9414800000 O         0.0000000000         0.0000000000       -41.1123269586     -103.4540211513     -112.2588732938
atom         9.0283000000        7.7717700000        0.1262700000 O         0.0000000000         0.0000000000        20.2935514699      200.7246813850       68.8753980300
atom         8.6384400000        5.3282700000        4.6142900000 O         0.0000000000         0.0000000000       -89.1756485629       65.7051888431       89.9770627417
atom         3.4110700000        8.1133700000        0.0233000000 O         0.0000000000         0.0000000000      -104.1599526327      236.2219837934      -19.2867755739
atom         8.1078900000        3.6318000000        6.7486800000 O         0.0000000000         0.0000000000       -30.6557642185     -222.4889469947       79.1373633539
atom         5.7698200000        0.1910100000       10.1664000000 O         0.0000000000         0.0000000000        96.2866345752       75.3677021865      110.6715404166
atom         6.9112700000        6.1698300000        5.8974400000 O         0.0000000000         0.0000000000       132.5100550540      -50.5531012786      -93.7255840307
atom         5.1206500000        1.9189900000       12.5484000000 O         0.0000000000         0.0000000000       -24.9375029479      -14.9828037627     -120.8584617753
atom        12.8620000000        4.4644100000       12.3574000000 O         0.0000000000         0.0000000000       -54.6942426420     -287.4337045137      -14.1408248428
atom         3.9009400000        0.5819400000        0.4608000000 O         0.0000000000         0.0000000000       -19.2430326897      118.4722451810      -87.4779677573
atom         2.9832600000        0.1660100000       10.1708000000 O         0.0000000000         0.0000000000        45.0593067343       63.3265072258     -206.6437431871
atom         2.6495100000        9.2018300000        3.2747800000 O         0.0000000000         0.0000000000       -15.2612540110     -257.6562921973      -69.2897359778
atom         2.2760900000        8.1924000000        7.8041400000 O         0.0000000000         0.0000000000       126.4608007269     -158.4528094202      -26.2547964640
atom         1.5435600000        4.7142100000        7.4532400000 O         0.0000000000         0.0000000000       121.9764996152      -67.7461868057      -68.0205189190
atom         8.1013000000       12.8656000000        5.2576900000 O         0.0000000000         0.0000000000      -109.8404964458      -84.8642478675      -87.5846640423
atom         6.2665900000       11.5620000000        4.9696400000 O         0.0000000000         0.0000000000       125.1425916923       78.0588699169      -49.1887094390
atom         5.5891300000        3.6010200000        4.5203100000 O         0.0000000000         0.0000000000       208.0238702992     -129.8346749654       64.7243956411
atom         8.1057900000        0.6166800000       11.3319000000 O         0.0000000000         0.0000000000       -83.3938116300     -161.1483937799       87.7957375131
atom         9.0272400000        2.4998700000       11.2994000000 O         0.0000000000         0.0000000000       260.6396269477       67.0190525632     -118.5304643409
atom         0.0353500000        7.0972800000        3.6014100000 O         0.0000000000         0.0000000000        21.0632342014        4.1511073223       20.4500259068
atom         4.4319800000       12.4758000000        8.6381100000 O         0.0000000000         0.0000000000        -2.6350103971      107.7971484561     -136.0701190544
atom         8.4778900000        7.5124800000       10.4597000000 O         0.0000000000         0.0000000000       -43.9733706496       97.6032815057       70.4045565940
atom        13.2614900000        7.6612700000        7.7128000000 O         0.0000000000         0.0000000000        26.9370178712      -89.3746979597      -27.3389911658
atom         3.7145200000        3.1201200000        2.0575300000 O         0.0000000000         0.0000000000        42.3908461158       21.9029866486     -103.2922830455
atom         5.9282500000       11.7666000000        7.2393700000 O         0.0000000000         0.0000000000      -120.4472979553      105.7716781380        8.7151827873
atom         4.8928700000       10.3458000000        0.9822600000 O         0.0000000000         0.0000000000        97.5985771591      -90.3602767246      -22.6054618015
atom         9.2325700000        9.9192500000        1.0587300000 O         0.0000000000         0.0000000000       -28.7378052050     -158.8299275357      -78.1349261569
atom         6.6135200000        9.1005500000        0.1199900000 O         0.0000000000         0.0000000000      -120.6115014418       80.6713988451       83.6938536477
atom        11.0475000000        1.6802400000        1.8107900000 O         0.0000000000         0.0000000000       117.0482042454      -91.3382972264     -155.0575194956
atom         4.2019700000        9.6980800000        6.4624300000 O         0.0000000000         0.0000000000        44.3623670291        6.0672593303        3.1856546990
atom        10.7817000000        6.3083100000        9.3647700000 O         0.0000000000         0.0000000000      -134.7215255538      -41.8982592039      215.1949492236
atom         8.3887200000        9.1138000000        8.0223400000 O         0.0000000000         0.0000000000       -31.9279760379      -39.7693153456     -117.0132208648
atom        12.3254000000        0.1209000000        0.7624400000 O         0.0000000000         0.0000000000       -51.9462688241       64.1373937345       -4.7531664167
atom        13.1648000000        6.4196800000        1.1721700000 O         0.0000000000         0.0000000000      -169.6787786428     -275.1373487133      104.8950284740
atom         2.0174500000        3.3887900000        9.8859700000 O         0.0000000000         0.0000000000       242.4341699658      133.5732131667       41.2055224500
atom         9.1015700000        7.5564300000        6.6553000000 O         0.0000000000         0.0000000000      -117.4193236402      126.4286252768       38.7728833746
atom         6.3437700000        5.8216200000        8.1617900000 O         0.0000000000         0.0000000000       194.3098356693      -27.6337916537      152.9793390371
atom         2.6221000000       10.2598000000       12.7981000000 O         0.0000000000         0.0000000000        32.2407671030     -122.3038900882       53.2253657260
atom         6.7033900000        2.1425700000        7.7938600000 O         0.0000000000         0.0000000000       181.6061037270      -86.5354764473      -12.5050953523
atom         7.7196700000       12.5923000000        8.3316400000 O         0.0000000000         0.0000000000       160.4427307722      193.9573402456      -24.9704484339
atom         3.4996100000       12.5155000000        6.3122100000 O         0.0000000000         0.0000000000        98.5872534637     -158.1588230542     -165.9003316904
atom         2.0366600000        7.1018400000        2.2644700000 O         0.0000000000         0.0000000000       110.1121748302      192.2382318724      134.2547987814
atom         3.2886400000        1.1114500000        4.1174200000 O         0.0000000000         0.0000000000      -102.6780309157     -110.1162195609      -92.1858209453
atom        11.5486000000        8.6815800000        5.0417400000 O         0.0000000000         0.0000000000       -39.2187121540      -14.0582076206      -55.2691166994
atom         6.0851500000       10.4983000000        9.6221600000 O         0.0000000000         0.0000000000        47.3180848311     -162.6547590320      -52.5082762985
atom         6.1275200000        8.2055900000        8.9159800000 O         0.0000000000         0.0000000000        40.3154019052      260.3184073478       84.6867358483
atom        12.3387000000        2.6911900000        5.0526600000 O         0.0000000000         0.0000000000       -13.5817583663       48.9429200591     -272.6050237657