begin
comment generated by PY
lattice        13.3100000000         0.0000000000         0.0000000000
lattice         0.0000000000        13.3100000000         0.0000000000
lattice         0.0000000000         0.0000000000        13.3100000000
atom         2.3818600000        2.0739200000        1.1435500000 H         0.0000000000         0.0000000000      -137.8319406524       35.1719432473       66.3394486264
atom        12.9013000000        0.5243500000        1.3007900000 H         0.0000000000         0.0000000000         2.6209762696       37.0466127539     -110.3184565900
atom         1.2148200000        3.4569300000        2.0239600000 H         0.0000000000         0.0000000000        32.0646608470     -116.7358127312      -49.7224641823
atom        12.7422000000        1.0435400000        7.0303700000 H         0.0000000000         0.0000000000       -66.1232075130       80.0014753508       56.2643169594
atom        11.1039000000        3.4162700000        0.4822600000 H         0.0000000000         0.0000000000       112.5738162417      -22.9141007325       79.3177713478
atom        11.8965000000        2.3708500000        1.8408800000 H         0.0000000000         0.0000000000       -11.8854585401       45.4316889199      -14.1560838458
atom        13.1275000000        3.9349000000       12.4910000000 H         0.0000000000         0.0000000000        38.2075888647      -32.6093102654       15.0559656673
atom        12.3298000000        4.6530300000        6.7168200000 H         0.0000000000         0.0000000000        98.8043682319      -61.4730292187      -48.7923789603
atom         4.9880400000        3.7277900000        6.2905200000 H         0.0000000000         0.0000000000       105.5285139002      -33.6436228039       12.9455204155
atom         8.1579400000        2.0584300000        5.5366800000 H         0.0000000000         0.0000000000       -50.1890988192       43.7560710198     -131.2226221812
atom         6.3509300000        3.5786200000        7.7265800000 H         0.0000000000         0.0000000000       -28.1603469364       -3.6613332998     -141.9907877644
atom         6.6945000000        1.9702400000        4.0963100000 H         0.0000000000         0.0000000000       106.7407754803       61.4484995378       64.0507284948
atom         9.2708100000        3.8192500000        5.4908500000 H         0.0000000000         0.0000000000       -82.1794988163      112.6420926507       15.3462183168
atom         8.8124500000        4.0283200000        6.8893600000 H         0.0000000000         0.0000000000       -81.6511489503       31.5295269815      -76.9974064811
atom         6.4350300000        5.8995900000        4.6337200000 H         0.0000000000         0.0000000000         0.7779717040     -141.6302697017       -4.1119702212
atom         7.3026200000        5.2970900000        3.6662500000 H         0.0000000000         0.0000000000       -54.8890432029      -91.0296933989       69.2606718784
atom         0.2318600000       12.4667000000        4.2204600000 H         0.0000000000         0.0000000000       -80.3826148777     -106.1906118567       66.9817273464
atom         0.9469500000       11.8118000000        6.1692400000 H         0.0000000000         0.0000000000       -65.4958700554     -100.8645784021       18.8129986523
atom        11.8146000000       12.0078000000        5.4581500000 H         0.0000000000         0.0000000000       118.6215600773      -15.1006587074      -64.5340485490
atom        12.9737000000       10.7636000000       13.2648500000 H         0.0000000000         0.0000000000        33.0097799225      -27.8762801392       -2.7164209805
atom         1.9140800000       10.4633000000        4.6581700000 H         0.0000000000         0.0000000000      -106.4849205359      -54.1615261749      -18.4762671444
atom         0.7236100000       10.5226000000        3.4048800000 H         0.0000000000         0.0000000000        -3.8548819000      -97.5794452445       99.1268034981
atom        11.2802000000        9.0758100000        5.2951900000 H         0.0000000000         0.0000000000        95.7288087319      -22.1888592966       44.4723833891
atom         0.7979500000        7.8760200000        0.4254700000 H         0.0000000000         0.0000000000      -117.2195907936      -13.5048142799      -12.7738257706
atom         8.0505900000       12.2574000000        1.2223700000 H         0.0000000000         0.0000000000       -50.3200085274     -124.6962822073       16.3605379656
atom         4.8198000000       11.7993000000        1.2799200000 H         0.0000000000         0.0000000000        83.7759577690      -22.4285358228      117.9891783762
atom         8.3057400000       10.2791000000        0.9325100000 H         0.0000000000         0.0000000000      -109.0211584756       72.4607497944       -9.6065223565
atom         5.9291300000       12.3703000000        2.7869100000 H         0.0000000000         0.0000000000       -68.2400010114      -64.5554523196      -56.1996878418
atom         5.4499300000        8.6361800000        2.9178800000 H         0.0000000000         0.0000000000        18.8793509306       69.4025089275     -112.3716925476
atom         4.6587100000        9.5420800000        1.3999000000 H         0.0000000000         0.0000000000       105.5528863652      -13.4621508521       48.9888412403
atom         6.7165900000        9.9297100000        4.0237800000 H         0.0000000000         0.0000000000        44.1378134273       13.6599739811      -42.6140077966
atom         8.0084400000       11.1429000000        3.7009100000 H         0.0000000000         0.0000000000       -76.3404422682     -108.9958011289      -54.2033561575
atom         1.3816700000        1.9625400000        6.6026500000 H         0.0000000000         0.0000000000       -38.9465910133       20.0258911562      141.0869412370
atom        11.5947000000        1.6205700000        8.3801800000 H         0.0000000000         0.0000000000        63.4789347698        4.1580659180      -94.3389958523
atom         2.1311700000        2.6279900000        8.2399800000 H         0.0000000000         0.0000000000      -131.0471284816      -23.9659945431      -43.3984569150
atom         0.3526900000        0.2622300000       12.9306000000 H         0.0000000000         0.0000000000       -81.9881030255       89.8010253125       74.5566798892
atom        11.8171000000        3.2269800000        9.6890500000 H         0.0000000000         0.0000000000        80.4188201193       47.5266998594      -47.0244045146
atom         0.1665600000        3.4462000000       10.0043000000 H         0.0000000000         0.0000000000       -70.6048163308       26.8632995251      -74.0580492262
atom         0.4977300000        4.9966000000        7.3039800000 H         0.0000000000         0.0000000000       -51.1667088070     -111.6126519727      -68.7991815265
atom         0.3391000000        2.4357400000       11.7972000000 H         0.0000000000         0.0000000000        35.2148405675       92.7482976286       89.5066030266
atom         4.7599700000        2.9206700000       11.4990000000 H         0.0000000000         0.0000000000       119.6894186882       64.2679447442       26.3574233025
atom         7.0932900000        1.6846500000       10.1372000000 H         0.0000000000         0.0000000000       -64.6451655445       82.8376140785      -25.5716406899
atom         5.3624300000        4.2489500000       12.3476000000 H         0.0000000000         0.0000000000        60.7672431292      -73.1088290322      -42.4040802594
atom         5.6767600000        2.8131600000        9.3388000000 H         0.0000000000         0.0000000000       116.4447900945      -47.6984063328       25.7117451009
atom         8.5449300000        4.4552800000       10.8586000000 H         0.0000000000         0.0000000000       -31.9571587491      -73.7000562746       87.9632567098
atom         8.3459900000        2.6275800000       11.2362000000 H         0.0000000000         0.0000000000       -19.1541655684      130.0558629440       49.4909855672
atom         6.5967500000        5.7189900000       10.6813000000 H         0.0000000000         0.0000000000       -24.7817687789      -76.8389394092     -108.8545642330
atom         7.0323100000        4.6228800000        9.0473200000 H         0.0000000000         0.0000000000       -90.2265238178       58.8888316793       76.7299292783
atom        11.2267000000        9.6600000000       12.2258000000 H         0.0000000000         0.0000000000        93.2475226046      -50.3706295019      -81.6978431241
atom         0.2808500000       10.9625000000       11.8885000000 H         0.0000000000         0.0000000000        10.9830699584      -63.1566420694       81.6277000081
atom        12.0818000000        8.4975200000       10.7974000000 H         0.0000000000         0.0000000000       -47.4073636457       75.7845356524       93.3740351919
atom        13.0594000000       11.4984000000        7.2682000000 H         0.0000000000         0.0000000000        64.8665348587      -82.0075436265      -81.6406550388
atom         1.4070500000        7.2748700000       11.6393000000 H         0.0000000000         0.0000000000       -11.2852241796      132.2343462278       -9.8351935385
atom         2.3842700000        8.7793100000       11.3337000000 H         0.0000000000         0.0000000000      -138.8909328253      -28.1495567137       12.6484633649
atom        12.4407000000        7.2448600000       12.9772000000 H         0.0000000000         0.0000000000        64.8268244447       74.3859483127       90.4193437744
atom        12.8948000000        8.3177600000        5.9475900000 H         0.0000000000         0.0000000000      -105.4377742121       59.1852397741        7.8324047268
atom         8.7170300000       10.1276000000        8.3352000000 H         0.0000000000         0.0000000000       -15.7374278856       19.0415352116      -91.6290963306
atom         6.1303100000       11.7396000000        8.2951900000 H         0.0000000000         0.0000000000        12.9508205602      -57.1094797060       94.8780078066
atom         8.3420300000        9.3924100000        6.7417000000 H         0.0000000000         0.0000000000       -46.6827337961       80.7031299992      103.4071912711
atom         7.1074200000       11.9625000000        9.6573700000 H         0.0000000000         0.0000000000       -67.8425081757      -94.1901959583      -45.0618525353
atom         6.2829700000        7.9215200000        8.3095300000 H         0.0000000000         0.0000000000       -64.7690942163      102.6061395673       -3.1301255349
atom         4.8087100000        9.4982200000        8.4360500000 H         0.0000000000         0.0000000000       116.9995632072      -94.3010795101      -24.3627785302
atom         7.9751700000       10.0754000000       10.7150000000 H         0.0000000000         0.0000000000       -32.4739255456      -90.3676447137      -58.2694100815
atom         8.3955400000        8.8113900000        9.5031700000 H         0.0000000000         0.0000000000       -65.4074885398       37.8853060740       89.6083290375
atom         0.1651300000        2.4162200000        0.6656500000 C         0.0000000000         0.0000000000       -91.3224088804        0.6949531711      -54.6473579492
atom         1.3110600000        2.4096100000        1.5920800000 C         0.0000000000         0.0000000000       -33.4398159493       54.2551979928       15.5181681887
atom        12.9279000000        0.9860400000        0.3224400000 C         0.0000000000         0.0000000000        23.5165153538      -46.0742959934       40.9519946145
atom        12.1668000000        3.1530500000        1.3289500000 C         0.0000000000         0.0000000000       -10.0653839054      -24.8562091455       13.6213067590
atom         0.4080100000        3.1769800000       12.6614000000 C         0.0000000000         0.0000000000        47.9983707094      -77.1209921532       81.0358437188
atom         7.0171900000        3.7421100000        5.3216700000 C         0.0000000000         0.0000000000        67.5051524254       73.8354909853       -7.1961056709
atom         6.0157000000        3.4241400000        6.4368800000 C         0.0000000000         0.0000000000        10.0145308957      -85.6618416470        9.8341572750
atom         7.5898600000        2.5962600000        4.5453600000 C         0.0000000000         0.0000000000       -58.9034899516      -40.4521018522        0.9168367020
atom         8.3607200000        4.4215000000        5.9780700000 C         0.0000000000         0.0000000000        -5.0705801051      -98.3445413195       62.0321130041
atom         6.6116600000        4.7558600000        4.3633400000 C         0.0000000000         0.0000000000       -36.5632061552      139.3464615097      -69.5202193544
atom        13.0588000000       10.1342000000        5.5152700000 C         0.0000000000         0.0000000000        96.9571252523      117.0691759722      -77.4674653743
atom        12.7262000000       11.6007000000        4.7283000000 C         0.0000000000         0.0000000000      -163.8250022613       17.1102433284       -1.9685577690
atom         0.3776800000       10.9221000000        6.4897800000 C         0.0000000000         0.0000000000        66.7717161153      115.7713040692       67.6839007328
atom         0.8319600000        9.8572000000        4.4017900000 C         0.0000000000         0.0000000000        39.8231148183       31.2294229395        6.5679368381
atom        12.1469000000        9.0963300000        5.9001700000 C         0.0000000000         0.0000000000         0.8794924726       68.1958016883        9.4548419144
atom         6.4234600000       10.4872000000        2.1543400000 C         0.0000000000         0.0000000000        19.1992782261       28.0786497690      -54.4237399474
atom         7.4119100000       10.9637000000        1.0467500000 C         0.0000000000         0.0000000000        10.7734252191      101.1171053011       -7.3084437294
atom         5.4099500000       11.5739000000        2.2929100000 C         0.0000000000         0.0000000000       -16.9333478317       18.8563524317       20.7428130283
atom         5.6582100000        9.3567600000        1.8097400000 C         0.0000000000         0.0000000000       -45.5823786338      -80.9894416065      -38.6394441786
atom         7.3078800000       10.1742000000        3.2567900000 C         0.0000000000         0.0000000000        24.2806536198       21.3776653739       56.4758253918
atom        13.0261000000        2.9502800000        7.8501000000 C         0.0000000000         0.0000000000       120.9743426265      -13.5000024885        4.8330583410
atom         1.0904600000        2.2953400000        7.7967700000 C         0.0000000000         0.0000000000        47.4542440972       -8.9056760252      -10.1921335491
atom        12.1825000000        1.8535900000        7.5036000000 C         0.0000000000         0.0000000000       -31.5925236256        1.2937215592      -35.1023709689
atom        12.7059000000        3.6323400000        9.2774900000 C         0.0000000000         0.0000000000        15.2288310210      -48.2328036418      -67.1970126196
atom        13.2884000000        4.1188100000        6.7067800000 C         0.0000000000         0.0000000000        40.2506339738       50.5209595885      123.5855798908
atom         6.7445800000        3.6818700000       10.7220000000 C         0.0000000000         0.0000000000       -68.0081791347      -10.0657345794       85.1828050745
atom         5.8105400000        3.4472900000       11.8287000000 C         0.0000000000         0.0000000000      -116.8720801000      -93.3154277793      -19.5794240925
atom         6.7114400000        2.6105700000        9.7787800000 C         0.0000000000         0.0000000000        59.1747248425       28.7296362738        6.7198789346
atom         7.9956600000        3.7638600000       11.5008000000 C         0.0000000000         0.0000000000        23.7837865487       -9.7104066079      -85.5028755961
atom         6.3289000000        4.8921200000        9.9100500000 C         0.0000000000         0.0000000000        33.1468888626      -11.6922231995       95.1019826203
atom         0.0264000000        8.9381900000       12.2748000000 C         0.0000000000         0.0000000000        15.6391256699      111.2176401222       35.2365037115
atom        12.0653000000        9.2933400000       11.5665000000 C         0.0000000000         0.0000000000        54.3843957701      -21.2709926716      -77.6685996133
atom         0.3208600000       10.3315000000       12.7316000000 C         0.0000000000         0.0000000000        72.1653529118      -10.8340659099      -84.6271089968
atom         1.2636100000        8.3880100000       11.4011000000 C         0.0000000000         0.0000000000       -23.1620999413      -96.1656486754      -44.9715647090
atom        13.0727000000        8.0202900000        0.1656700000 C         0.0000000000         0.0000000000        46.9791834818       73.5097200589      -70.5903255718
atom         6.9593400000        9.9438200000        8.8685300000 C         0.0000000000         0.0000000000       -72.3660994640      -61.2069034661      -28.4098501535
atom         8.0666300000       10.1473000000        7.5520200000 C         0.0000000000         0.0000000000        33.8492572717        9.4615197144       49.7890931290
atom         6.4368500000       11.1893000000        9.1778900000 C         0.0000000000         0.0000000000       -12.0664737591      103.7698595347       -3.3277113618
atom         5.8828500000        8.9458200000        8.2151900000 C         0.0000000000         0.0000000000        41.0259104475       92.5886980122      -38.8344536097
atom         7.6138700000        9.2841600000       10.0995000000 C         0.0000000000         0.0000000000        43.6601351611        5.5732535741      -57.8049429575
atom         1.0154500000        1.6477400000        2.9472100000 O         0.0000000000         0.0000000000       205.4939086269       39.7162571410      -77.2692728397
atom        11.2021000000        2.2848300000        6.5556100000 O         0.0000000000         0.0000000000         6.1180022954      -87.8588137507      -87.9235364621
atom         2.6341700000        1.8555600000        4.3695900000 O         0.0000000000         0.0000000000       -53.9282152858      -54.3291836502     -193.2862601255
atom         9.9976800000        1.5679000000        4.8549600000 O         0.0000000000         0.0000000000       285.3317992172       32.9759503808       90.8253565043
atom         3.1246600000        1.1668500000        2.4416800000 O         0.0000000000         0.0000000000      -156.0979420896       82.8038561579      200.9728722617
atom        12.2159000000        1.8735700000        4.6179100000 O         0.0000000000         0.0000000000      -282.3117698481      -47.3432880620      144.5736874760
atom        12.5376000000        4.2045300000        2.1081000000 O         0.0000000000         0.0000000000        27.6972616294       46.9939552447       20.4553539284
atom         0.9438900000        3.7216000000        5.6989000000 O         0.0000000000         0.0000000000       -10.8164959268      139.6974106681       90.9014667530
atom        12.9092000000        5.9461400000        3.4558400000 O         0.0000000000         0.0000000000      -207.9525237908     -275.2497423634      -39.2861949114
atom        11.1190000000        4.5481900000        3.6121700000 O         0.0000000000         0.0000000000       232.4496627514      125.6342622199      -28.2544340167
atom         2.5855300000        5.3637600000        6.6707500000 O         0.0000000000         0.0000000000      -156.4848525387     -177.1298180559     -168.0828232894
atom         2.1912000000        5.2780900000        4.6817300000 O         0.0000000000         0.0000000000       -52.0708567497     -132.0318623094      182.1015834472
atom         6.1740400000        1.9155800000        6.2590600000 O         0.0000000000         0.0000000000      -141.2166900920      -12.1496682802       80.7726427838
atom         8.3074400000        2.9076800000        3.2932700000 O         0.0000000000         0.0000000000       -33.7370095914     -107.4794492269       68.2390909023
atom         5.4868000000        1.2618000000        1.0996900000 O         0.0000000000         0.0000000000       -80.8988847235       90.9168189894     -238.8439317178
atom         9.5759200000        1.4914100000        2.1605600000 O         0.0000000000         0.0000000000      -272.5901464027       -3.2116310449       32.6973907362
atom         4.0115500000        1.5466100000        7.1306600000 O         0.0000000000         0.0000000000       255.7124203923      -84.6148869402      -79.6201088761
atom         7.4236700000        1.0709400000        2.2596800000 O         0.0000000000         0.0000000000       234.8088241708       87.2083742087       19.1883910073
atom         7.8081500000        5.7692700000        6.4536000000 O         0.0000000000         0.0000000000       132.0101954723      -11.6277957022      103.3329762531
atom         5.4125400000        4.2741400000        3.5806800000 O         0.0000000000         0.0000000000        11.6697895409       91.4850511564       11.0416010794
atom         9.5560400000        5.1280300000        1.0897900000 O         0.0000000000         0.0000000000      -109.4459992729      -29.8104380341     -312.4379440946
atom         9.5292600000        6.8017700000        7.1853400000 O         0.0000000000         0.0000000000      -239.3893284574     -113.2723351763       75.1221552010
atom         3.3507400000        4.8387400000        2.6752200000 O         0.0000000000         0.0000000000       223.2441460212       85.7600781742       21.6305186459
atom         4.9523300000        6.0968200000        1.9960700000 O         0.0000000000         0.0000000000      -130.5441057011     -198.2557602340      198.6380920884
atom        11.7835000000       11.1874000000        3.7240400000 O         0.0000000000         0.0000000000       -22.1935597724       91.0536909718      -28.8756633753
atom         1.6795500000       10.4597000000       13.2515000000 O         0.0000000000         0.0000000000      -142.4537104039      156.3459246184       81.4461528665
atom         9.8701900000       11.9815000000        2.7608300000 O         0.0000000000         0.0000000000       210.7008992952       24.0896099355       21.4692351535
atom         2.6142900000       12.2019000000        1.1795000000 O         0.0000000000         0.0000000000      -320.3840412081     -147.8629506219      -95.1234842321
atom        11.6969000000       13.1007000000        2.3406100000 O         0.0000000000         0.0000000000      -186.5461522125     -231.0700019894      145.7772566408
atom         0.1968000000       11.8466000000        1.3137100000 O         0.0000000000         0.0000000000       306.4654197654      -26.2534995961      -91.1389029286
atom         1.0208700000        8.4831200000        4.3373100000 O         0.0000000000         0.0000000000       106.5063370542      116.9940133099     -100.0475678210
atom        12.5594000000        8.9922100000        1.3122400000 O         0.0000000000         0.0000000000      -116.0446676844     -172.5957314058       22.8493209330
atom         2.8246000000        7.3007500000        3.1940400000 O         0.0000000000         0.0000000000      -144.3963654597      283.8279282100       55.3070131805
atom         2.5563400000        9.3789300000        2.6243400000 O         0.0000000000         0.0000000000       -81.0029596410     -233.4053026515      200.4974775964
atom        10.8074000000        8.8439400000        2.9110300000 O         0.0000000000         0.0000000000       218.6671542691      -68.6293624671     -197.6284960576
atom        11.2304000000        7.1239700000        1.8483400000 O         0.0000000000         0.0000000000       127.7418560579      273.0509331406       22.2841003409
atom         6.6180700000       11.6362000000       13.2344000000 O         0.0000000000         0.0000000000       130.0737949376      -11.7442336084      -15.1133123799
atom         4.2590500000       11.1506000000        3.1784600000 O         0.0000000000         0.0000000000        -0.0623631518      149.7104323347       47.1831019414
atom         9.5011800000       11.8756000000        5.0894900000 O         0.0000000000         0.0000000000      -109.5021711569      -61.5233868758      251.1490453418
atom         2.9816400000       11.4709000000        4.9264000000 O         0.0000000000         0.0000000000       151.0326450759      165.6484978159     -216.3624516242
atom         8.5351000000       11.7780000000       12.0326000000 O         0.0000000000         0.0000000000       -91.6814243304       76.0670880543       34.2613808257
atom         4.5019500000       13.1160000000        4.3135800000 O         0.0000000000         0.0000000000      -227.9103423631     -228.4409394148      -81.9424667841
atom         6.2806600000        8.5979200000        0.7901800000 O         0.0000000000         0.0000000000      -101.3049719471      -21.0478230080       12.1473689603
atom         8.0722900000        9.0416600000        2.9121200000 O         0.0000000000         0.0000000000        16.4272736193      -38.7704077531       94.8124499317
atom         5.5476900000        7.3413200000        5.6668300000 O         0.0000000000         0.0000000000       -70.8000438136      188.9319411696       89.0664728352
atom         4.4696400000        8.5844900000       12.8515000000 O         0.0000000000         0.0000000000       109.9651065977     -107.3757361425       43.4569523019
atom         8.3894500000        8.6454800000        5.1046300000 O         0.0000000000         0.0000000000        68.3887173067     -106.2002635025     -266.3542117407
atom         8.5948400000        6.8774700000        3.8417600000 O         0.0000000000         0.0000000000        17.9159825633      341.0792524480        0.3371996611
atom         0.9111700000        0.8535900000        8.8590900000 O         0.0000000000         0.0000000000        72.2597211516       70.6898254052      155.0049096638
atom        11.5621000000        0.9856600000       13.1127000000 O         0.0000000000         0.0000000000        43.9902794886      -82.9552084765      -39.1169182770
atom         1.2618400000       13.1799000000       10.7479000000 O         0.0000000000         0.0000000000        25.3075109876      283.9350372747     -158.5858116724
atom        10.5612000000        0.9054800000       11.3778000000 O         0.0000000000         0.0000000000        58.3554726953     -226.6798287774      150.8184724076
atom         2.0913700000        2.0339500000       10.4542000000 O         0.0000000000         0.0000000000      -172.4508703709     -252.5440995152      -71.5809745944
atom        10.8514000000       12.2435000000       12.3479000000 O         0.0000000000         0.0000000000        36.5965254931      294.9454767269      -45.1173890333
atom        12.6008000000        4.8875500000        8.7849500000 O         0.0000000000         0.0000000000       -91.2366152773       12.5778485550      199.2068313269
atom         1.7901400000        3.6725000000       13.2026000000 O         0.0000000000         0.0000000000       -90.2852334702      180.1258707896     -144.7604579346
atom        12.4209000000        6.3023100000       10.4923000000 O         0.0000000000         0.0000000000      -150.8702073490     -179.4616231917     -133.0161770595
atom        10.5401000000        5.1330000000        9.7710900000 O         0.0000000000         0.0000000000       314.1734209225      110.4656131794       37.6351478538
atom         3.2462300000        5.1576600000       13.1775000000 O         0.0000000000         0.0000000000      -309.0380066928      -10.2990955760      -58.6293147665
atom         1.1542100000        5.8154600000       12.6419000000 O         0.0000000000         0.0000000000       204.0729919461     -223.7898655589       71.8372016516
atom         6.2642900000        2.3363300000       12.7012000000 O         0.0000000000         0.0000000000      -125.8005060932       28.2370463865       25.4150627742
atom         7.9294900000        2.8686500000        8.9152300000 O         0.0000000000         0.0000000000       -73.2173100532     -114.6883165437       22.3633093461
atom         5.0754200000       13.1809000000        6.5947400000 O         0.0000000000         0.0000000000        53.3393400187      227.0782589885       23.6092993177
atom         8.8285600000        1.0404000000        7.4029700000 O         0.0000000000         0.0000000000       -81.7996135770       56.3629203157      329.5237309715
atom         4.1566900000        1.9432700000       12.8323000000 O         0.0000000000         0.0000000000       193.7382456778      -72.6062677152      147.4196889072
atom         8.7479600000        0.6968000000        9.6137900000 O         0.0000000000         0.0000000000       -60.5240208823      127.7439497905     -254.8737922427
atom         7.9632100000        4.1749300000       12.9362000000 O         0.0000000000         0.0000000000       118.1238809903       40.9989924285     -101.3934918600
atom         4.8961500000        4.9634300000        9.5945700000 O         0.0000000000         0.0000000000        -0.5715103050       49.6663242304       12.9511392568
atom         7.9079500000        6.3157500000        8.6206200000 O         0.0000000000         0.0000000000       136.2233613208       12.7418455226     -299.2406678039
atom         9.7081100000        5.5175200000       12.2694000000 O         0.0000000000         0.0000000000      -109.0462632392     -103.8421393385      212.3686371446