begin
comment generated by PY
lattice        13.3100000000         0.0000000000         0.0000000000
lattice         0.0000000000        13.3100000000         0.0000000000
lattice         0.0000000000         0.0000000000        13.3100000000
atom         1.9713300000        2.2921600000        1.2715200000 H         0.0000000000         0.0000000000       -64.9039709524       64.7229432472       84.0737352716
atom        12.5736000000        1.3796400000        0.9205200000 H         0.0000000000         0.0000000000        44.2744193499       97.8011913062      -72.1469078866
atom         1.9299800000        3.6439800000        2.4123000000 H         0.0000000000         0.0000000000       -63.9728547435      -80.0260569560      -37.3400055054
atom         0.3844300000        1.6139700000        6.1914200000 H         0.0000000000         0.0000000000      -113.1006824554       27.5121625672       64.5816456548
atom        11.3082000000        4.0370000000        1.4376100000 H         0.0000000000         0.0000000000       103.7789458628      -32.5324722136       68.8854406096
atom        11.9099000000        2.8218200000        2.6482200000 H         0.0000000000         0.0000000000        27.3824687808      104.7352237384      -62.7527470458
atom         0.9758500000        5.4700900000        0.9425500000 H         0.0000000000         0.0000000000       -35.8701494038     -103.8256261195      -69.0975080921
atom        12.6945000000        4.8265100000        6.2525400000 H         0.0000000000         0.0000000000        93.3479017305      -45.5236859482       42.5411941586
atom         4.6866700000        2.5968400000        4.6651200000 H         0.0000000000         0.0000000000        73.6338074117       53.4475516775       71.8445333248
atom         7.1054800000        1.2962200000        4.1063000000 H         0.0000000000         0.0000000000       -16.3069306448      102.4563152649      -74.8890202053
atom         5.2115900000        3.9699500000        5.7657700000 H         0.0000000000         0.0000000000        13.2034850778      -96.8813914772      -51.2259593548
atom         6.0890700000        1.9918700000        2.7948200000 H         0.0000000000         0.0000000000       100.9845852625       23.2006631886       70.1342438005
atom         8.5296500000        4.2518500000        4.6052500000 H         0.0000000000         0.0000000000       -64.2899158309      -68.6790048296       81.3936290472
atom         8.4734300000        2.7305700000        5.5371200000 H         0.0000000000         0.0000000000       -74.6676467793      103.8348402761      -26.4421273902
atom         5.7806100000        5.3097800000        3.9981800000 H         0.0000000000         0.0000000000        66.7012576481      -82.3104375790      -57.0443107817
atom         7.2902900000        5.0324500000        3.1314900000 H         0.0000000000         0.0000000000      -101.0677741084      -53.9922477646       31.2287271718
atom        11.4093000000       10.7711000000        5.5264800000 H         0.0000000000         0.0000000000        66.9469637195      -55.4568307271      -79.5566556055
atom         0.8698100000       12.0094000000        5.9432200000 H         0.0000000000         0.0000000000       -53.5421014714      -97.9065873380       58.7350779235
atom        11.7063000000        9.2568700000        4.4535700000 H         0.0000000000         0.0000000000        37.6576047579      120.3737798206       46.3304499715
atom        12.8531000000       11.6244000000        0.1459600000 H         0.0000000000         0.0000000000       100.8149273763      -37.9739813439      -44.1777004590
atom         1.9645000000        9.0158500000        5.4116400000 H         0.0000000000         0.0000000000       -67.8436747439       55.4741015792      -80.5564020778
atom         1.7253000000       10.4609000000        4.3619100000 H         0.0000000000         0.0000000000       -41.1920831089      -89.8926838123       49.8597306475
atom        12.6090000000        7.9212000000        5.9093400000 H         0.0000000000         0.0000000000        51.4827891724       91.9243113345       80.3822050682
atom         0.4264200000        8.4395700000        0.4006700000 H         0.0000000000         0.0000000000      -101.9888669050       18.6428960135      -72.3800740574
atom         8.4996800000       10.9141000000        2.0246800000 H         0.0000000000         0.0000000000       -87.1309938710      -64.6938257746      -73.4202941262
atom         5.7791500000       11.9871000000        2.4784000000 H         0.0000000000         0.0000000000        46.6316821393      -88.6271660906       85.4609521288
atom         8.0207900000        9.5044100000        0.8525100000 H         0.0000000000         0.0000000000       -17.2628828244       99.7018997481       58.5659009668
atom         7.2061700000       11.4650000000        3.5239300000 H         0.0000000000         0.0000000000      -116.4439920265      -24.0098995264      -38.9228469439
atom         4.4685600000        9.0721700000        2.0373900000 H         0.0000000000         0.0000000000        89.2184481137       56.1690170151      -74.6146015706
atom         4.7729500000       10.3876000000        0.8327200000 H         0.0000000000         0.0000000000        52.4784824849      -78.8325405641       70.8279171944
atom         7.4057000000        7.9899300000        2.5971200000 H         0.0000000000         0.0000000000       -54.6043273094       99.6666433881       74.6752258806
atom         6.0068400000        8.4252100000        3.6479900000 H         0.0000000000         0.0000000000        91.6422628914       37.7431293194      -53.0346102106
atom         1.8641600000        2.4348700000        7.7231600000 H         0.0000000000         0.0000000000       -72.6565784822       42.9250575702       78.2020947139
atom        12.3708000000        1.2275500000        7.4871300000 H         0.0000000000         0.0000000000        46.5408622614       70.7979138849      -83.5573995243
atom         1.4115800000        3.7326200000        8.9368000000 H         0.0000000000         0.0000000000       -22.3391616030     -105.3976792320      -55.1366233444
atom         0.4614500000        1.8622300000       12.9684000000 H         0.0000000000         0.0000000000       -83.5241131201       37.4780502108       72.5535656087
atom        11.3080000000        4.2475200000        7.7705300000 H         0.0000000000         0.0000000000        69.5501609021      -71.8284865944       67.5558027988
atom        11.6240000000        2.6639600000        8.7775600000 H         0.0000000000         0.0000000000        21.9567459266      115.1711769807      -44.7857226252
atom         0.8361400000        5.1365300000        7.3021700000 H         0.0000000000         0.0000000000       -65.2653451842      -86.0640286447      -76.6637028045
atom        12.9765000000        4.9811100000       13.1704000000 H         0.0000000000         0.0000000000        95.5455781773      -33.0071042586       54.9221760339
atom         4.7226800000        2.9655000000       11.1340000000 H         0.0000000000         0.0000000000        89.0319982495        4.2813980741       88.2028319848
atom         7.5452500000        1.3324400000       10.9658000000 H         0.0000000000         0.0000000000       -55.1514016967       96.8480166495      -87.9976845085
atom         5.2860400000        4.0678100000       12.3055000000 H         0.0000000000         0.0000000000        21.6674893610      -86.2395575059      -40.2704536907
atom         6.1547100000        1.8238000000        9.7980700000 H         0.0000000000         0.0000000000       103.8293641183       27.7534284583       45.7440432526
atom         8.7621900000        4.3101700000       11.2454000000 H         0.0000000000         0.0000000000       -89.6685865528      -39.9070281594       69.5407323550
atom         8.2901100000        3.0482800000       12.4299000000 H         0.0000000000         0.0000000000       -33.7130712975      100.2248738797      -55.8118865860
atom         6.2275600000        5.5215300000       10.6268000000 H         0.0000000000         0.0000000000        25.7783628492     -102.2048067870      -78.7271684774
atom         7.4273000000        4.7110900000        9.4687100000 H         0.0000000000         0.0000000000       -92.6238428341        7.3152667314       58.3154793528
atom        11.1312000000       10.4521000000       11.9515000000 H         0.0000000000         0.0000000000       109.8832443644      -22.8656938837      -52.7165040875
atom         0.8381500000       11.9337000000       12.2909000000 H         0.0000000000         0.0000000000       -34.8882478595      -79.7000208730       78.5290652272
atom        11.9755000000        9.2934000000       10.8871000000 H         0.0000000000         0.0000000000        -5.2620504241      104.9777097893       45.5499643730
atom        12.9570000000       11.4003000000        7.1675600000 H         0.0000000000         0.0000000000        90.1285786629      -19.4204899068      -71.2562920348
atom         1.8809000000        8.7803400000       12.1829000000 H         0.0000000000         0.0000000000       -71.1229070273       84.0333703893      -84.4147548911
atom         1.8421100000       10.3182000000       11.0587000000 H         0.0000000000         0.0000000000       -69.2937846741      -91.7227799780       54.1418404482
atom        12.5126000000        7.8955300000       12.4362000000 H         0.0000000000         0.0000000000        36.0042186724       92.4733364125       71.3911398668
atom         0.6617800000        8.4417600000        7.0696700000 H         0.0000000000         0.0000000000      -102.6232094685       24.9994922790      -52.7407995425
atom         8.7098100000       10.4950000000        8.6820800000 H         0.0000000000         0.0000000000      -107.8882111121      -11.7647085671      -67.7411193611
atom         5.8406100000       11.9679000000        9.0374200000 H         0.0000000000         0.0000000000        30.3039533644      -72.6299993705       76.4967968710
atom         8.0534800000        9.3250700000        7.6139500000 H         0.0000000000         0.0000000000       -23.3160886243       95.7137280778       38.4678906644
atom         7.1763400000       11.6506000000       10.1454000000 H         0.0000000000         0.0000000000      -107.0760656750      -47.0676066881      -55.4820536916
atom         4.6519600000        9.0289500000        8.6260900000 H         0.0000000000         0.0000000000        78.2203302251       58.2239058560      -74.5246445395
atom         5.0969200000       10.4276000000        7.4727800000 H         0.0000000000         0.0000000000        26.1243991979     -109.2054934256       53.3234758937
atom         7.4193600000        8.0853400000        9.3989300000 H         0.0000000000         0.0000000000       -65.7030033954       67.8981903477       58.6086433599
atom         5.8614900000        8.5701900000       10.3785000000 H         0.0000000000         0.0000000000       124.3762720420       18.5077303816      -46.1643918971
atom         0.1226400000        3.3519500000        1.1897000000 C         0.0000000000         0.0000000000        -8.6148005737       14.5326852431       -6.8265450253
atom         1.3311700000        2.8661200000        1.9916100000 C         0.0000000000         0.0000000000         6.9185492651      -29.3561156826      -34.0671195397
atom        12.9754000000        2.2433700000        0.3056800000 C         0.0000000000         0.0000000000       -11.8339485933      -25.4061415015      -14.6500669357
atom        12.1930000000        3.7105100000        2.0355400000 C         0.0000000000         0.0000000000        25.7739289453        4.5146458329        3.8486281793
atom         0.5761300000        4.6071600000        0.3435100000 C         0.0000000000         0.0000000000       -53.3657911596        5.8893511462      -12.6257163989
atom         6.6637200000        3.3661100000        4.3523900000 C         0.0000000000         0.0000000000       -10.5784534012        1.9764467727       23.1483979372
atom         5.4618800000        3.0646100000        5.2549700000 C         0.0000000000         0.0000000000        46.3087713162      -21.2451482664      -19.6142344373
atom         6.9351800000        2.2105500000        3.4833300000 C         0.0000000000         0.0000000000        22.8213898983      -27.3867736325       27.3205745175
atom         7.8621300000        3.6412900000        5.2611400000 C         0.0000000000         0.0000000000        62.8830441588       34.9470259697      -45.6475277951
atom         6.3744300000        4.5433400000        3.4817900000 C         0.0000000000         0.0000000000       -21.8669561144       18.3834294905        8.2534905482
atom         0.0718400000        9.9245500000        5.6636800000 C         0.0000000000         0.0000000000         8.6773531242       22.4089410673       -9.6439762661
atom        12.1088000000       10.2617000000        4.8572500000 C         0.0000000000         0.0000000000        -1.4175593627      -10.9840767581       -2.7222915429
atom         0.4742000000       11.1357000000        6.5047400000 C         0.0000000000         0.0000000000        21.8643511345        5.4710648411       14.7050455145
atom         1.2728000000        9.5819600000        4.7812800000 C         0.0000000000         0.0000000000       -17.0183071432       -2.3560851737       -2.2754581833
atom        13.0537000000        8.7537500000        6.5534200000 C         0.0000000000         0.0000000000        -7.7427993436        6.1465921584      -16.1594441124
atom         6.4732200000        9.9765000000        2.2349700000 C         0.0000000000         0.0000000000        20.7866142025       17.8287768795       34.0886720008
atom         7.7117200000       10.4008000000        1.3946700000 C         0.0000000000         0.0000000000       -33.1247475808        6.2135487434       -7.7397703044
atom         6.2052800000       11.1637000000        3.1326100000 C         0.0000000000         0.0000000000        12.8615376375       19.4035034080      -34.0116231472
atom         5.2527500000        9.5897900000        1.4039300000 C         0.0000000000         0.0000000000        -5.5182722573      -25.3366571156      -15.6452287336
atom         6.8802500000        8.8363700000        3.1655700000 C         0.0000000000         0.0000000000       -12.6820288272      -23.3637659329       -4.4948407745
atom        13.2107000000        3.1879500000        7.5628200000 C         0.0000000000         0.0000000000       -19.7852370902        9.5414228748      -24.5482143411
atom         1.1133000000        2.8257900000        8.3952000000 C         0.0000000000         0.0000000000       -40.4708964509       -7.4605133985      -16.4527450114
atom        12.7725000000        1.9552000000        6.7787500000 C         0.0000000000         0.0000000000        17.8077794480       15.3497564422       -2.4708540857
atom        11.9959000000        3.6214800000        8.3435700000 C         0.0000000000         0.0000000000        48.6180850971      -18.4839984502       29.5999115353
atom         0.2671500000        4.3624500000        6.6739000000 C         0.0000000000         0.0000000000        24.1290572190       12.8417966449        2.6860524186
atom         6.8084700000        3.4484200000       10.9736000000 C         0.0000000000         0.0000000000       -12.8850868077       13.2957959986       14.1944534562
atom         5.5530500000        3.1644300000       11.8450000000 C         0.0000000000         0.0000000000         4.2743558849       30.5001691852      -33.2993422023
atom         7.1025100000        2.1650400000       10.2272000000 C         0.0000000000         0.0000000000         8.4697335940      -28.4157409604       11.4642490016
atom         7.9332500000        3.9116600000       11.8455000000 C         0.0000000000         0.0000000000         4.3233192349       -8.6353894398       -3.0145926088
atom         6.5251700000        4.6110000000       10.0404000000 C         0.0000000000         0.0000000000        12.4410823872      -47.3856196763        3.5500416915
atom         0.0143700000        9.9004000000       12.2675000000 C         0.0000000000         0.0000000000       -22.0729164823       32.0157558518      -11.1308605705
atom        12.0762000000       10.2294000000       11.4296000000 C         0.0000000000         0.0000000000        24.4714525717      -19.9079481884      -14.9956725431
atom         0.4385600000       11.2038000000       12.9876000000 C         0.0000000000         0.0000000000       -28.6583084089      -17.0256535914       18.8392586625
atom         1.2234000000        9.4876700000       11.4909000000 C         0.0000000000         0.0000000000        10.3686877820      -33.2079412991      -13.5905069209
atom        12.8535000000        8.7345000000       13.0675000000 C         0.0000000000         0.0000000000        32.6562729646        0.6366936103       43.8030349622
atom         6.5512700000        9.9666200000        8.9261500000 C         0.0000000000         0.0000000000        41.1025364376      -15.1034367939        8.4018660140
atom         7.7976300000       10.2455000000        8.0944900000 C         0.0000000000         0.0000000000       -16.9160400139      -20.3459944417        8.1971836690
atom         6.2246500000       11.2262000000        9.7056800000 C         0.0000000000         0.0000000000        28.4352096372       16.3384182733        3.7236515481
atom         5.4377600000        9.4956300000        7.9902600000 C         0.0000000000         0.0000000000       -31.2374359404        8.8927272177       25.6353517849
atom         6.8744700000        8.8512800000        9.9152900000 C         0.0000000000         0.0000000000         3.2618401803       19.5944024876      -12.6565609630
atom         0.8383300000        1.9427900000        2.9620800000 O         0.0000000000         0.0000000000       157.0220955621      -31.8302980941       42.0204266003
atom        11.6496000000        2.3048100000        5.8196000000 O         0.0000000000         0.0000000000        62.9930875285     -187.7540002704       -9.1979365483
atom         1.5065200000        0.3822300000        4.4090000000 O         0.0000000000         0.0000000000        52.4522941780      235.4503715331     -185.0819441118
atom        10.3844000000        1.4192100000        4.3760300000 O         0.0000000000         0.0000000000       238.1711286410      -81.5170689570      174.2962279679
atom         2.9674100000        1.7744400000        3.6211000000 O         0.0000000000         0.0000000000      -289.2135570183     -104.2911983439        4.4623283678
atom        12.0318000000        0.1820800000        5.2653000000 O         0.0000000000         0.0000000000      -180.0555029243      240.2630557941      -44.4286386626
atom        12.7060000000        4.8494800000        2.9064900000 O         0.0000000000         0.0000000000      -186.7737286148       -8.4325293957       38.1687420246
atom         1.1594100000        3.9053000000        5.5570400000 O         0.0000000000         0.0000000000        22.4502053295      154.3237293127       31.5204436522
atom        11.9182000000        6.3519900000        4.3260600000 O         0.0000000000         0.0000000000       -65.0094424085     -248.5514835928     -184.2732397119
atom        10.5498000000        4.8006800000        3.4007700000 O         0.0000000000         0.0000000000       274.5745921723      160.8762702057       66.8180301409
atom         2.8153300000        4.7402200000        4.2929300000 O         0.0000000000         0.0000000000      -211.0671994754       72.7696274510      169.5521477530
atom         1.5149600000        6.1267800000        5.3438300000 O         0.0000000000         0.0000000000       106.3404705594     -252.1261992382      -84.7115669093
atom         6.0296200000        2.0977300000        6.1878200000 O         0.0000000000         0.0000000000      -185.0983026151      -16.2706200841       30.2689170392
atom         8.2194100000        2.5531300000        2.7738300000 O         0.0000000000         0.0000000000       -44.5394597252     -172.4571679556      -45.5389293648
atom         5.0923900000        0.6180800000        0.8497300000 O         0.0000000000         0.0000000000       -96.4107144992      239.1154028242     -198.2401233205
atom         9.4883400000        1.7016600000        1.1619800000 O         0.0000000000         0.0000000000      -200.6422999069      -82.3272316170      236.6327224697
atom         3.8212100000        1.8101000000        6.6252300000 O         0.0000000000         0.0000000000       304.0637579586      -95.6637910252       74.7375432959
atom         8.1943100000        0.3497200000        2.4114300000 O         0.0000000000         0.0000000000       138.5135625788      262.9045733328     -102.3968661772
atom         7.5826300000        4.5141500000        6.4399200000 O         0.0000000000         0.0000000000       126.4279437119       47.8524129765      -51.0215137847
atom         5.5368900000        4.0472100000        2.3804500000 O         0.0000000000         0.0000000000       -35.2334177934      182.9370002456       12.5767145761
atom         8.0737500000        6.0758900000        1.2110100000 O         0.0000000000         0.0000000000       107.7058967626     -138.0276678167     -236.3231680645
atom         9.7407800000        5.0054000000        6.3694000000 O         0.0000000000         0.0000000000      -268.2460867494      108.2851058421       95.2008901339
atom         3.9541500000        4.8650600000        0.9747100000 O         0.0000000000         0.0000000000       219.0484206395       70.5672425407      222.8082741920
atom         5.1580500000        6.2829200000        2.1952200000 O         0.0000000000         0.0000000000       -99.1099616448     -285.6587248465      -98.1965898913
atom        12.4591000000       11.1396000000        3.6997900000 O         0.0000000000         0.0000000000      -120.4764117971       45.9660144929        5.2502067898
atom         1.3915300000       10.7867000000        0.7287800000 O         0.0000000000         0.0000000000        41.9989438668      160.6991044806       -7.4907507524
atom        11.9045000000       12.6545000000        2.2253800000 O         0.0000000000         0.0000000000      -105.8046737987     -179.8732821420      220.9783375150
atom         2.9170600000       11.3454000000        2.1766500000 O         0.0000000000         0.0000000000      -186.3205881091      110.6980576864     -224.8707352799
atom        10.3174000000       11.5995000000        3.3812300000 O         0.0000000000         0.0000000000       287.6576797102       95.9714333264      -75.2429948960
atom         1.9420800000       12.9327000000        0.9801100000 O         0.0000000000         0.0000000000        57.4297863973     -282.3757148986       72.3687068327
atom         0.7686200000        8.8262000000        3.6086200000 O         0.0000000000         0.0000000000       161.5449317623      -74.5036310644       29.0319500869
atom        11.8133000000        9.1836600000        0.6894100000 O         0.0000000000         0.0000000000        -2.8896747151     -165.1082332671       20.8768185483
atom         1.2781900000        7.1317600000        2.2835500000 O         0.0000000000         0.0000000000       106.7248759318      197.4533670608      200.7606405780
atom         2.8824500000        7.9416300000        3.5476600000 O         0.0000000000         0.0000000000      -293.9484966234       -5.1387455712     -112.7505148951
atom        10.5266000000        8.4986200000        2.3626600000 O         0.0000000000         0.0000000000       174.6989810347      -97.2549503185     -245.0919773129
atom        11.4536000000        6.9586400000        1.0587800000 O         0.0000000000         0.0000000000       -60.2701150992      295.3704091491       93.1913472508
atom         7.2100200000       11.3605000000        0.4178200000 O         0.0000000000         0.0000000000       161.6785687315       27.7480785096        8.0264774302
atom         5.3298700000       10.8207000000        4.2056100000 O         0.0000000000         0.0000000000       -29.2718308452      175.0904960668      -19.8988426742
atom         8.0455000000       12.6614000000        5.6646000000 O         0.0000000000         0.0000000000        99.3105075829     -191.4759637518      192.8409540496
atom         3.9843300000       11.6486000000        5.7011900000 O         0.0000000000         0.0000000000       162.7980406359       69.1460748396     -246.1826486062
atom         9.3686000000       11.8695000000        0.2537800000 O         0.0000000000         0.0000000000      -269.5895897013       82.0134046799     -104.5292449543
atom         4.9667800000       13.0881000000        4.3284300000 O         0.0000000000         0.0000000000       -78.5971350714     -302.2217371843       97.4088081579
atom         5.7490400000        8.6646600000        0.3476700000 O         0.0000000000         0.0000000000      -168.5915341890      -36.2482106771       13.5743760460
atom         7.7350500000        9.3413700000        4.3243200000 O         0.0000000000         0.0000000000        49.3974747039     -196.3956127066      -52.9917720658
atom         4.9914800000        7.1820100000        5.4576600000 O         0.0000000000         0.0000000000       -70.5097343142      143.5711991986      251.9967154463
atom         3.5802200000        8.0003700000        0.2280400000 O         0.0000000000         0.0000000000       266.3092843509      -31.5966620064     -110.8249827135
atom         9.4372700000        8.6780300000        5.4834200000 O         0.0000000000         0.0000000000      -232.2139681644     -105.6527604101     -184.4252999386
atom         8.2571200000        7.1169500000        4.4017300000 O         0.0000000000         0.0000000000        68.8270936559      301.6040987539       88.8647225045
atom         0.6581600000        1.7528000000        9.3116700000 O         0.0000000000         0.0000000000       205.4528440097       39.7098681492       13.4658351712
atom        11.9066000000        2.7322600000       12.7093000000 O         0.0000000000         0.0000000000        30.6964762466     -172.6793450925      -14.1503211437
atom         1.6207200000        0.6007300000       11.0043000000 O         0.0000000000         0.0000000000        57.3592287120      182.6960678915     -267.6581043785
atom        10.6767000000        1.9702800000       11.0598000000 O         0.0000000000         0.0000000000       165.7299108994      -96.7598638544      197.4944709043
atom         2.9476300000        1.7867300000        9.6705100000 O         0.0000000000         0.0000000000      -290.1071932543     -119.2542114210       75.1936209148
atom        11.6782000000        0.4513800000       12.2915000000 O         0.0000000000         0.0000000000       -71.8610060512      291.7363854311     -100.2706131588
atom        12.5610000000        4.4380500000        9.5054800000 O         0.0000000000         0.0000000000      -193.7352375888       61.2402123350      -16.2529554590
atom         1.4006200000        4.1380500000       12.6177000000 O         0.0000000000         0.0000000000        21.2691318965      167.4418430124      -14.4885770199
atom        11.8516000000        6.0849100000       10.8326000000 O         0.0000000000         0.0000000000       -59.9324668756     -222.6686056135     -207.4743824665
atom        10.3815000000        5.0600400000        9.5632400000 O         0.0000000000         0.0000000000       295.4073625817       37.5309044179      110.3540070215
atom         2.8142100000        4.8568700000       11.0681000000 O         0.0000000000         0.0000000000      -229.1995215394       97.0729904012      193.5522131355
atom         1.5250100000        6.3299600000       12.0822000000 O         0.0000000000         0.0000000000        97.9042169146     -264.9348397361      -61.2849017103
atom         5.8945400000        2.1972300000       12.8129000000 O         0.0000000000         0.0000000000      -156.3744866691      -16.0633361850       -9.2140098341
atom         8.0627300000        2.3599300000        9.1487200000 O         0.0000000000         0.0000000000       -11.4666310294     -150.5015208434       18.6774084140
atom         5.3516400000        0.5507700000        7.6466100000 O         0.0000000000         0.0000000000       -84.6709862122      231.6884720663     -189.5124779634
atom         9.3691600000        1.2905900000        7.7252500000 O         0.0000000000         0.0000000000      -204.9637388699      -55.6154154479      224.1179368821
atom         3.6751600000        1.9366600000       13.0277000000 O         0.0000000000         0.0000000000       264.4914647080     -110.1598939583       99.0686972646
atom         8.1675600000        0.0967300000        9.1818300000 O         0.0000000000         0.0000000000       109.7637104496      253.3100257703     -157.7210374915
atom         7.3919700000        4.9855700000       12.7659000000 O         0.0000000000         0.0000000000       179.6022486621      -30.8522581731       25.2638640038
atom         5.5444200000        4.0674000000        9.0731100000 O         0.0000000000         0.0000000000       -48.6843790233      188.0062124748       -2.8245912561
atom         8.3481500000        6.2664400000        7.5344900000 O         0.0000000000         0.0000000000        70.5512516285     -219.0620069272     -198.2780310443
atom         9.5916400000        5.2435600000       13.1095000000 O         0.0000000000         0.0000000000      -280.9257700761       69.6421947214      128.8558802755