begin
comment generated by PY
lattice        13.3100000000         0.0000000000         0.0000000000
lattice         0.0000000000        13.3100000000         0.0000000000
lattice         0.0000000000         0.0000000000        13.3100000000
atom         1.6953600000        2.7970200000        2.0815300000 H         0.0000000000         0.0000000000      -105.3693258471      -35.7249704990       59.5300875929
atom        12.6305000000        1.2259100000        0.7144000000 H         0.0000000000         0.0000000000        37.6445839513       69.2616906857      -60.4677744763
atom         0.6326900000        3.1410700000        3.4430000000 H         0.0000000000         0.0000000000         5.0787567162      -45.4885601605      -89.3536055815
atom         0.5130200000        1.9810500000        6.5476600000 H         0.0000000000         0.0000000000      -116.6309936225       -5.9828005222       39.9425631460
atom        10.9650000000        3.6031300000        1.4706600000 H         0.0000000000         0.0000000000        51.8160785660      -71.8839831315       72.8339712304
atom        11.3850000000        1.8860700000        2.2940900000 H         0.0000000000         0.0000000000        12.0501551088      134.3581336116      -16.9353177988
atom         0.1890800000        5.0609200000        1.8053500000 H         0.0000000000         0.0000000000       -21.6363866334      -61.7447693341     -100.4234155187
atom        12.0834000000        4.5946000000        6.3806700000 H         0.0000000000         0.0000000000        88.9926488234       -3.9956087557       34.3193944731
atom         5.2697100000        1.9663800000        4.5745600000 H         0.0000000000         0.0000000000        94.1276368397       45.4499129125       74.0492527002
atom         8.1826600000        1.1897800000        4.1379900000 H         0.0000000000         0.0000000000       -57.7502011014       65.7266357091     -101.7728060691
atom         5.8463900000        3.1713400000        5.8828500000 H         0.0000000000         0.0000000000        16.0553742148      -87.5641931770      -68.3720307073
atom         6.6522700000        1.5437800000        2.9889200000 H         0.0000000000         0.0000000000       121.7723290875       22.5811005935       35.9527711412
atom         9.1360800000        3.5490800000        4.4394700000 H         0.0000000000         0.0000000000       -78.7135999642       -4.9091743387      100.4531195300
atom         8.5241800000        2.5632000000        5.9702700000 H         0.0000000000         0.0000000000       -15.8422697107      100.9905137919      -90.0104016366
atom         5.7682500000        4.5833100000        4.0341100000 H         0.0000000000         0.0000000000       105.8065750626      -39.0850741436      -71.5303006787
atom         7.5288800000        4.7207500000        3.2297900000 H         0.0000000000         0.0000000000      -103.0846574754      -46.4820880563       43.6184232085
atom        11.0130000000       10.8862000000        5.0106000000 H         0.0000000000         0.0000000000        87.3230500575      -47.9971579207      -54.4216484988
atom         0.0402000000       11.9300000000        5.7468900000 H         0.0000000000         0.0000000000       -27.4037589557      -65.8742252348      101.0989163797
atom        11.5663000000        9.3899800000        4.0625700000 H         0.0000000000         0.0000000000        14.2849219909      121.8203560715       57.7849175270
atom        12.7925000000       11.4497000000       12.9668000000 H         0.0000000000         0.0000000000        98.4220869581      -34.4067903711      -61.1873287633
atom         1.6112700000        9.1520400000        5.3221800000 H         0.0000000000         0.0000000000       -78.4804247933       30.3805855450      -86.7401383112
atom         1.2378100000       10.5504000000        4.2406800000 H         0.0000000000         0.0000000000       -36.9481789310     -112.0171775657       36.1564164826
atom        12.2218000000        8.0568700000        5.5243300000 H         0.0000000000         0.0000000000        22.1544983483       72.4942160036      101.9588607371
atom         0.8160100000        8.6195200000       13.2885500000 H         0.0000000000         0.0000000000      -119.0058755995       13.3813766623      -40.4425732361
atom         8.9243600000       10.8481000000        1.9173200000 H         0.0000000000         0.0000000000       -79.9994201949      -40.4878007547      -66.1176865199
atom         6.7598600000       12.7468000000        2.6222800000 H         0.0000000000         0.0000000000        13.5526242383      -94.5288651525       85.2008325596
atom         8.2269500000        9.3682900000        1.2495500000 H         0.0000000000         0.0000000000       -21.4916120110      119.6222032602       24.1768084292
atom         7.9525600000       11.9962000000        3.7148000000 H         0.0000000000         0.0000000000      -110.7791832399        3.4849391652      -19.0850815082
atom         5.0526600000       10.0777000000        2.9890600000 H         0.0000000000         0.0000000000        52.2958428382       16.1405683044     -106.2211352624
atom         5.2204200000       10.8695000000        1.3613200000 H         0.0000000000         0.0000000000        42.3403236859      -52.2362697410       75.6501508865
atom         6.9778700000        8.5567300000        3.0609800000 H         0.0000000000         0.0000000000        48.9757140596       86.9222560527       81.5580316682
atom         6.8338200000        9.6331600000        4.5895500000 H         0.0000000000         0.0000000000        48.6168551812      -19.5741731651     -104.9359160777
atom         1.6915900000        2.9390900000        7.7910200000 H         0.0000000000         0.0000000000       -81.3075430321       -1.2058074953       98.5156704051
atom        12.3306000000        1.3605300000        7.4913400000 H         0.0000000000         0.0000000000        49.9446620100       64.3429978223      -82.6152908371
atom         1.1541100000        3.9587900000        9.2405300000 H         0.0000000000         0.0000000000       -29.8254673751     -113.6174519650      -68.6410290731
atom         0.7987400000        1.9062400000        0.0687600000 H         0.0000000000         0.0000000000      -115.9807361526       19.3779117967       23.8259292623
atom        10.9231000000        4.1449200000        8.3329100000 H         0.0000000000         0.0000000000        90.0127059739      -58.8604667947       39.5380243520
atom        11.5824000000        2.5859000000        9.1790500000 H         0.0000000000         0.0000000000        11.5135241637      127.4301781382      -41.0430560629
atom        13.1875000000        5.3535700000        7.4352200000 H         0.0000000000         0.0000000000       -10.2784631155      -77.3485273804      -73.9393366318
atom        12.6354000000        4.7670800000        0.2454000000 H         0.0000000000         0.0000000000        77.3941445751      -34.3697296872       67.8359262989
atom         4.9330000000        2.3029900000       11.7966000000 H         0.0000000000         0.0000000000       119.1228785177        4.7974850537       42.4138996418
atom         7.9669500000        1.3482100000       10.7234000000 H         0.0000000000         0.0000000000       -48.6034913538       80.0302018166      -61.6380549121
atom         5.8151200000        3.1856700000       13.0560000000 H         0.0000000000         0.0000000000        11.4250719801      -76.0332598481     -100.1711713647
atom         6.5031500000        1.4730000000        9.8149000000 H         0.0000000000         0.0000000000        93.9007935840       67.0821081378       41.7382013628
atom         8.8354500000        4.0160500000       11.1063000000 H         0.0000000000         0.0000000000       -76.3444004086      -35.8365515274       93.2416049870
atom         8.5819400000        2.7985700000       12.3376000000 H         0.0000000000         0.0000000000       -40.1855089964       86.8372235336      -39.6205196409
atom         5.7293600000        4.9527900000       11.3519000000 H         0.0000000000         0.0000000000        36.9743246884      -68.9706973110      -99.4862038133
atom         6.8401300000        4.6106900000        9.7948000000 H         0.0000000000         0.0000000000       -96.9687916615      -15.6809681384       85.8451725293
atom        11.1881000000       10.2709000000       11.6254000000 H         0.0000000000         0.0000000000        76.5424037958      -19.3852143882      -79.5028680031
atom         0.6328200000       11.7935000000       11.6078000000 H         0.0000000000         0.0000000000       -37.6745773373      -67.9610702929       76.0028157243
atom        11.6455000000        8.9628200000       10.5828000000 H         0.0000000000         0.0000000000        33.6055252412      100.9158187494       51.9194338225
atom        12.2508000000       11.2518000000        7.1088300000 H         0.0000000000         0.0000000000        92.2892306519       -3.3705359972      -67.1126371655
atom         1.9300400000        9.1333100000       11.5462000000 H         0.0000000000         0.0000000000       -91.4343150831      -12.4634032583      -88.2594555699
atom         1.2150100000        9.7387700000        9.9667500000 H         0.0000000000         0.0000000000       -16.0208918241      -60.6549874812       92.1618154483
atom        12.7361000000        7.7385700000       12.5292000000 H         0.0000000000         0.0000000000        37.7039488259      121.5269762383       39.8110916085
atom        13.2949000000        8.3735700000        6.9118800000 H         0.0000000000         0.0000000000       -77.1799732680       46.9159946666      -58.5673574386
atom         8.6364200000       10.3733000000        8.5354500000 H         0.0000000000         0.0000000000       -77.7928989014      -17.5094109173      -75.7154337348
atom         6.6125200000       12.4772000000        8.9012700000 H         0.0000000000         0.0000000000        42.4629472850      -54.2221752524       90.1146062434
atom         7.5471800000        9.1016300000        7.6964000000 H         0.0000000000         0.0000000000        27.8370674930      128.9910040193       33.0390727833
atom         8.0756600000       11.9688000000        9.8000200000 H         0.0000000000         0.0000000000      -124.7946942706      -13.6733905020        1.5245931187
atom         4.7332100000       10.5160000000        9.3890300000 H         0.0000000000         0.0000000000        43.4439578905      -29.2842136193     -105.0761456815
atom         5.0858700000       11.0273000000        7.7491400000 H         0.0000000000         0.0000000000        29.5484744612      -84.6840471423       71.4186192879
atom         6.5509100000        8.3902900000        9.7296800000 H         0.0000000000         0.0000000000        29.3748453811      115.1478582031       63.7472910616
atom         6.1821900000        9.7527000000       11.0209000000 H         0.0000000000         0.0000000000        68.4329224356      -50.6024739489      -86.0298919981
atom        12.9711000000        3.0274700000        1.4721000000 C         0.0000000000         0.0000000000        24.0175177423       20.5252291101       -5.3190442063
atom         0.6999600000        2.6126700000        2.5414800000 C         0.0000000000         0.0000000000        10.9229436504       -3.3132027709      -32.6317363250
atom        13.0595000000        2.0983300000        0.3203500000 C         0.0000000000         0.0000000000        17.5937651433      -46.0801003153       16.2105863042
atom        11.6178000000        3.0076200000        2.1084900000 C         0.0000000000         0.0000000000        23.9597455346       22.9420839612       -4.9282512997
atom         0.0409400000        4.3933700000        0.9450600000 C         0.0000000000         0.0000000000        29.2166356420        7.7333037707       48.1020448645
atom         7.1803900000        2.9809500000        4.3506600000 C         0.0000000000         0.0000000000        -1.9655678730      -19.4625353907      -21.5726736133
atom         6.1292200000        2.4029200000        5.1823200000 C         0.0000000000         0.0000000000       -16.5690333175        4.9860872735       17.0369481920
atom         7.6325300000        1.8951000000        3.4301500000 C         0.0000000000         0.0000000000       -12.6246136207       28.0329369958       47.4819027757
atom         8.3102000000        3.3818400000        5.1834700000 C         0.0000000000         0.0000000000        11.1442975126      -11.5559826161      -11.4615145080
atom         6.6621900000        4.1258300000        3.5142500000 C         0.0000000000         0.0000000000        17.1284393150       -1.5486339890       -4.1593627389
atom        12.9400000000        9.9896800000        5.4924100000 C         0.0000000000         0.0000000000       -17.0883697410       -5.5863394089       27.5373222361
atom        11.8526000000       10.3969000000        4.5458600000 C         0.0000000000         0.0000000000         4.4258775295      -59.8633394057      -38.9101847566
atom        13.1072000000       11.1369000000        6.4710800000 C         0.0000000000         0.0000000000        57.3338906334       -2.1328596092      -63.6978979016
atom         0.8547800000        9.5927400000        4.6582600000 C         0.0000000000         0.0000000000        -8.7356974918       56.3600172260       23.2866337264
atom        12.5377000000        8.7970800000        6.2877900000 C         0.0000000000         0.0000000000       -11.7466885511      -28.3931486567      -42.0087089770
atom         7.0571800000       10.5504000000        2.5710100000 C         0.0000000000         0.0000000000       -70.8710083599       -9.7124060982        8.8947121522
atom         8.0308500000       10.4371000000        1.4683000000 C         0.0000000000         0.0000000000        50.4984025065      -15.5231439912        9.4779118008
atom         6.9564600000       11.8962000000        3.3161300000 C         0.0000000000         0.0000000000        10.3720382996       -0.2770752320      -44.1951228932
atom         5.6539600000       10.2462000000        2.0818900000 C         0.0000000000         0.0000000000       -12.4887925553      -38.6357437995       10.2634841733
atom         7.3226100000        9.4668300000        3.6325300000 C         0.0000000000         0.0000000000        11.7943319334      -11.0396022834      -40.7515861675
atom        12.9295000000        3.3512300000        7.7606800000 C         0.0000000000         0.0000000000        -4.0836016309       -6.9893145250      -15.3607274123
atom         0.8882700000        3.0618600000        8.5714900000 C         0.0000000000         0.0000000000        -7.0723650833       33.8534030304      -26.0345644236
atom        12.7785000000        2.1158600000        6.8725800000 C         0.0000000000         0.0000000000        36.5480181895       12.9012217176       11.2229749112
atom        11.7861000000        3.6289900000        8.7265000000 C         0.0000000000         0.0000000000        21.8573578711      -11.2798140335       23.6679781079
atom        12.9997000000        4.4934700000        6.8460500000 C         0.0000000000         0.0000000000        23.5343790604        7.1308072002       30.3136866352
atom         6.8702900000        3.1133900000       11.1980000000 C         0.0000000000         0.0000000000        -4.7214766276       -5.8811736246       -0.5438702339
atom         5.9694900000        2.4879600000       12.1727000000 C         0.0000000000         0.0000000000       -17.9864863214       19.0080821284       55.6871971705
atom         7.3577600000        2.0712600000       10.2202000000 C         0.0000000000         0.0000000000       -35.2184362103      -22.3616241151      -11.7512998428
atom         8.1236900000        3.6338000000       11.8803000000 C         0.0000000000         0.0000000000         7.2473120721        0.6741325594      -23.1975516689
atom         6.0738300000        4.2644400000       10.5539000000 C         0.0000000000         0.0000000000        36.9117395164      -20.6860776198      -11.5634463572
atom        13.2429000000        9.7622100000       11.7661000000 C         0.0000000000         0.0000000000        12.3285851620      -26.9629282956       -9.0840097966
atom        11.9795000000        9.9162800000       10.9969000000 C         0.0000000000         0.0000000000        18.3591555189      -43.1746489286      -18.1889905959
atom         0.3103000000       11.0818000000       12.3361000000 C         0.0000000000         0.0000000000         7.2220396598        8.6873956160       -1.0432249974
atom         1.0335600000        9.1613100000       10.8543000000 C         0.0000000000         0.0000000000        -4.5725363662       15.6263595483       21.6449977603
atom        13.1086000000        8.7536700000       12.8431000000 C         0.0000000000         0.0000000000         6.8539638444       -6.3556667344       14.1674334295
atom         6.7066700000       10.4690000000        9.1196900000 C         0.0000000000         0.0000000000         5.8504052398      -37.0093160329      -20.2057924664
atom         7.7110100000       10.1972000000        8.0367000000 C         0.0000000000         0.0000000000       -21.1303168369      -16.5841884938       29.8884614916
atom         6.9834600000       11.8133000000        9.6917400000 C         0.0000000000         0.0000000000       -23.1772566999       36.9850676199      -59.8349603384
atom         5.3466600000       10.3062000000        8.4941200000 C         0.0000000000         0.0000000000       -19.8099536193       11.6403945238       75.6680689422
atom         6.8090600000        9.4097000000       10.1782000000 C         0.0000000000         0.0000000000         7.3254019842       -3.0042638524      -19.8862592913
atom         0.4538900000        1.1588000000        2.9367000000 O         0.0000000000         0.0000000000       162.0070251925       78.2711395001      102.3651995984
atom        12.0940000000        2.3299100000        5.5705100000 O         0.0000000000         0.0000000000       -86.7392676743     -163.5704126830       55.1459792736
atom         1.1430000000       13.0004000000        4.3525900000 O         0.0000000000         0.0000000000        49.7499695438      296.4734003629     -122.6806064930
atom        10.4224000000        1.3545000000        4.3062400000 O         0.0000000000         0.0000000000       230.1748191730      -12.8550368970      232.3436363101
atom         2.2783100000        1.6281800000        4.1856700000 O         0.0000000000         0.0000000000      -246.0011687445     -194.4092158568      -88.3048873505
atom        11.4975000000        0.0968900000        5.7705500000 O         0.0000000000         0.0000000000       -47.3951129764      301.0900740442     -133.9016243188
atom        11.7118000000        3.7525000000        3.4872900000 O         0.0000000000         0.0000000000       -70.0315202595       94.5102678664      -87.7401492460
atom         0.8375900000        4.2672500000        5.7972100000 O         0.0000000000         0.0000000000       -13.0298348958      195.3844905039       45.9885269432
atom        11.7706000000        5.9178900000        4.1398100000 O         0.0000000000         0.0000000000      -206.1112420771     -233.6797321583     -149.7794509013
atom         9.8481000000        5.1016500000        3.1967300000 O         0.0000000000         0.0000000000       315.6404799014        4.6873104284      104.6294932868
atom         2.5595400000        5.4889300000        5.0344900000 O         0.0000000000         0.0000000000      -304.1244727519       -1.5505877558      113.2631897929
atom         0.8194600000        6.6063500000        5.8379200000 O         0.0000000000         0.0000000000       145.5787859121     -286.2210660845      -90.7558718662
atom         6.6931000000        1.2061800000        6.0901300000 O         0.0000000000         0.0000000000      -176.7120460891       65.9382637807       59.5330698676
atom         8.5670800000        2.5254400000        2.3855800000 O         0.0000000000         0.0000000000       -33.5191777149     -231.1293333629      -26.9282757186
atom         5.8696500000       12.7589000000        0.8865400000 O         0.0000000000         0.0000000000         1.8967565328      315.8389404805     -134.7022597733
atom         9.6227900000        1.8345400000        0.6328500000 O         0.0000000000         0.0000000000      -178.5589914096      -87.9678967884      239.6569917069
atom         5.2986400000        2.0093500000        7.7271200000 O         0.0000000000         0.0000000000       123.0562600968     -252.1468463139     -169.0805073161
atom         8.5746500000        0.2674800000        1.8353900000 O         0.0000000000         0.0000000000        84.6186935778      318.9934328865      -56.0922288629
atom         7.9121700000        4.7270300000        6.0213100000 O         0.0000000000         0.0000000000       179.5792813070      -46.3669586265       44.4276464774
atom         6.2088700000        3.7336000000        2.0411400000 O         0.0000000000         0.0000000000       -72.5694587244      187.3398642106       79.4164201286
atom         8.9438700000        6.0995700000        0.9184900000 O         0.0000000000         0.0000000000        17.2330468520     -247.3562755370     -218.3893106433
atom        10.0880000000        4.7899100000        6.6022800000 O         0.0000000000         0.0000000000      -293.8749109491       76.3100583336       32.2073469719
atom         4.7263400000        4.5287400000        0.7300700000 O         0.0000000000         0.0000000000       206.2329092824       52.4589120041      224.6599575775
atom         5.5649600000        5.9037300000        2.2181700000 O         0.0000000000         0.0000000000        13.0338116786     -293.4449471016     -122.8737513632
atom        12.3809000000       11.1970000000        3.3285400000 O         0.0000000000         0.0000000000      -205.4356381532       47.8778011350       49.6085035514
atom         1.7274000000       10.9634000000       13.2283000000 O         0.0000000000         0.0000000000       -76.7962006704      123.9974446076       82.9100568386
atom        11.4512000000       12.6290000000        1.8091300000 O         0.0000000000         0.0000000000       -53.0402173640     -177.9227185019      271.2390148204
atom         1.1796500000       11.3789000000        1.9902400000 O         0.0000000000         0.0000000000       142.8943284426      101.1124482026     -247.2545174382
atom        10.0841000000       11.6546000000        3.2619000000 O         0.0000000000         0.0000000000       297.3725763823       72.3799590266      -95.5976795395
atom         2.4206100000       12.8507000000        0.9315500000 O         0.0000000000         0.0000000000      -156.8536671885     -267.0553756383       -0.7440433044
atom         0.3156800000        8.6583600000        3.4816100000 O         0.0000000000         0.0000000000       191.0389448642      -13.8702229747        6.1042342889
atom        12.1451000000        9.3392200000        0.5865100000 O         0.0000000000         0.0000000000       -33.5440705963     -199.0627549881       -8.4835258493
atom         0.9773400000        6.8138900000        2.5979000000 O         0.0000000000         0.0000000000        75.3866843726      311.7362489682       56.7222638531
atom         2.2355000000        8.6911700000        2.2754100000 O         0.0000000000         0.0000000000      -249.6994229178     -149.9869505261      155.4808403796
atom        10.4366000000        8.7667800000        1.8194700000 O         0.0000000000         0.0000000000       249.0026647632     -114.8274098354     -173.3382206953
atom        11.6802000000        7.1207400000        0.9012100000 O         0.0000000000         0.0000000000       -75.8969943208      315.6511866989       61.4278525103
atom         7.7124300000       11.1020000000        0.0505400000 O         0.0000000000         0.0000000000       128.6209867933       25.5134180464       66.8975779857
atom         5.8403300000       11.8178000000        4.4641200000 O         0.0000000000         0.0000000000       -73.1284819123       80.5926704467      -68.1246011579
atom         8.6465600000       12.8765000000        5.9991400000 O         0.0000000000         0.0000000000        -2.1584136951     -311.0653364645      102.5669007526
atom         3.7722100000       12.4830000000        5.2434600000 O         0.0000000000         0.0000000000       247.7810797297        1.4890233710     -227.3295277109
atom        10.1218000000       11.2885000000       12.9844000000 O         0.0000000000         0.0000000000      -295.1298655565      157.1135741365      -48.9801204063
atom         4.5774600000        0.0775600000        3.3982400000 O         0.0000000000         0.0000000000        18.1176341777     -205.1692760338      232.0812472177
atom         5.6010300000        8.8523100000        1.2781500000 O         0.0000000000         0.0000000000      -100.6169556791       72.5250405781      -65.2154305404
atom         8.8737100000        9.4027700000        3.9159300000 O         0.0000000000         0.0000000000       -85.3309863123     -143.2656288917       90.2678441822
atom         3.7416000000        7.5889600000        6.8897100000 O         0.0000000000         0.0000000000       136.0345174141      293.3582534657       29.8629849725
atom         4.3636100000        9.8194000000       13.1073000000 O         0.0000000000         0.0000000000        87.9695492834     -233.7762798694      116.0262471331
atom        10.3536000000        7.9608000000        4.6683600000 O         0.0000000000         0.0000000000      -319.5059478801       85.3426860073       42.2454130820
atom         8.2855700000        7.9380700000        5.5962300000 O         0.0000000000         0.0000000000       232.3625311859       93.7454785903     -207.1400051711
atom         0.5304500000        1.7169800000        9.3651700000 O         0.0000000000         0.0000000000       143.1609454460       42.4832387625       79.0120185369
atom        12.3992000000        2.4980400000       12.2877000000 O         0.0000000000         0.0000000000      -100.4778880221     -126.3173679138       45.1004587643
atom         1.3109200000        0.1188400000       10.7409000000 O         0.0000000000         0.0000000000        15.7652972222      324.6205948572      -90.6361837765
atom        10.5032000000        2.0954000000       11.0756000000 O         0.0000000000         0.0000000000       244.9419523868     -109.6829087334      197.1298280618
atom         2.2116400000        2.2023600000       10.8720000000 O         0.0000000000         0.0000000000      -216.6410679360     -228.3703725315     -124.8913336890
atom        11.6442000000        0.3915900000       11.9196000000 O         0.0000000000         0.0000000000       -56.3037444616      314.1666108539      -13.5070102613
atom        12.3971000000        4.5848800000        9.7832400000 O         0.0000000000         0.0000000000      -147.4031287292       23.4464615036       27.0043753453
atom         1.4619700000        4.3025800000        0.2832500000 O         0.0000000000         0.0000000000      -120.4699850597      147.4152697008      -71.2642828404
atom        11.8789000000        6.2474700000       11.3551000000 O         0.0000000000         0.0000000000      -102.6331363547     -245.9743078594     -204.4719079057
atom        10.2041000000        5.2448300000       10.3429000000 O         0.0000000000         0.0000000000       315.6706367576       22.6781448738       57.2682365406
atom         1.8355500000        4.9321700000       11.5231000000 O         0.0000000000         0.0000000000       -83.0914294030      101.5678829075      292.2839208040
atom         1.4075300000        6.5026300000       12.9801000000 O         0.0000000000         0.0000000000        14.7375022306     -292.3956825333      -53.6369980363
atom         6.6672400000        1.2308300000       12.7758000000 O         0.0000000000         0.0000000000      -157.2361143516       -2.7229919905       67.5949444440
atom         8.0786300000        2.7374300000        8.9716100000 O         0.0000000000         0.0000000000        74.1421344920     -179.1931853735       38.3327277331
atom         5.5890700000       13.1324000000        7.3614500000 O         0.0000000000         0.0000000000        50.3303514793      304.2915808938      -71.5890960582
atom         9.8979400000        2.1932000000        7.6824800000 O         0.0000000000         0.0000000000      -239.4150564860     -122.0581470310      190.2218395350
atom         4.9037900000        1.4147100000        0.9705200000 O         0.0000000000         0.0000000000       226.2267483401     -192.4267892493     -134.9700026849
atom         8.8614600000        0.5447800000        8.7757100000 O         0.0000000000         0.0000000000        43.4011739669      315.3512475911      -90.2647313579
atom         7.8210700000        4.6854100000       12.8965000000 O         0.0000000000         0.0000000000       189.3880328137      -21.4588722832      -18.6080541420
atom         4.8705700000        3.7783700000        9.7058400000 O         0.0000000000         0.0000000000        26.9268551918      196.4100620585       -0.1445041380
atom         8.5441200000        5.9364100000        7.6719700000 O         0.0000000000         0.0000000000        95.5010854502     -202.2444569470     -222.5480794588
atom        10.1141000000        4.5482100000       13.1949000000 O         0.0000000000         0.0000000000      -272.5714485534      147.3106492922       39.6398990213