begin
comment generated by PY
lattice        13.6306216230         0.0000000000         0.0000000000
lattice         0.0000000000        14.1878665680         0.0000000000
lattice         0.0000000000         0.0000000000        12.9891211290
atom         2.0007600000        3.1933800000        1.5844400000 H         0.0000000000         0.0000000000      -105.5409249321       11.4047230838       47.3538616946
atom        12.5994100000        1.5081500000        1.0943300000 H         0.0000000000         0.0000000000        46.6606119814       69.8000296976      -88.3703922663
atom         0.9092100000        3.8912100000        2.9258900000 H         0.0000000000         0.0000000000        26.2046675599      -63.0946437865     -106.0657633128
atom         0.3476600000        2.2311900000        5.9000100000 H         0.0000000000         0.0000000000       -77.0486098751        8.5076747488       55.6174974793
atom        11.5358100000        4.3127600000        1.0667000000 H         0.0000000000         0.0000000000        72.7990739532       -5.1890097970      103.3239940908
atom        11.7892100000        3.1182300000        2.3986400000 H         0.0000000000         0.0000000000        49.6949620039      110.4979612646      -53.6200531322
atom         0.5001200000        5.5182600000        0.7549800000 H         0.0000000000         0.0000000000       -42.0096700393      -98.5290811368      -81.1098556117
atom        12.7488100000        5.1137300000        6.1549800000 H         0.0000000000         0.0000000000       104.3058397802      -20.5885290680       47.1351355625
atom         4.7495000000        2.3490500000        4.4983900000 H         0.0000000000         0.0000000000        91.3546885975       56.5633580337       60.7344591226
atom         7.5411600000        1.4918600000        4.0223000000 H         0.0000000000         0.0000000000       -52.9609773675       80.2163431072      -77.8958558096
atom         5.0047600000        3.6078800000        5.6748300000 H         0.0000000000         0.0000000000        50.6764003803      -70.1654763804      -65.8559101347
atom         6.1453100000        1.9132000000        2.9000200000 H         0.0000000000         0.0000000000       111.8081564369       35.6400547583       45.8293563071
atom         8.5862300000        4.6081100000        4.4733500000 H         0.0000000000         0.0000000000       -82.7836360819      -58.6768039922       72.3922425312
atom         8.5727300000        3.2204600000        5.5358800000 H         0.0000000000         0.0000000000       -80.6880926747       80.8602864249      -54.6067691900
atom         5.9431300000        5.4495000000        4.1958500000 H         0.0000000000         0.0000000000        21.7439893526      -91.3800301671      -93.5009517922
atom         6.9941400000        5.1368700000        2.8149900000 H         0.0000000000         0.0000000000       -85.8567340162      -63.4545345077       64.8676868214
atom        11.6210100000       11.1677300000        5.2103000000 H         0.0000000000         0.0000000000       103.7989670859      -10.0548229028      -84.4068625540
atom         0.7833700000       12.6844300000        5.5139300000 H         0.0000000000         0.0000000000       -51.9475703107      -83.4894525468       86.2844327975
atom        12.3095100000       10.1006900000        3.9664300000 H         0.0000000000         0.0000000000        20.2019831718       89.7448746649       57.5749936357
atom        13.1976100000       12.0855300000        0.3684700000 H         0.0000000000         0.0000000000        99.2452813820      -33.7200962236      -45.4443283236
atom         2.1719800000        9.9967500000        5.4156900000 H         0.0000000000         0.0000000000       -96.3251023815       30.7264025578      -83.4729575376
atom         1.9059600000       11.1581300000        4.1400000000 H         0.0000000000         0.0000000000       -75.3995110827      -88.1384210081       52.9530682545
atom        12.9786100000        8.7014400000        5.5329900000 H         0.0000000000         0.0000000000        27.2341366814       71.1100811663       89.9250167456
atom         0.5167600000        8.6375500000        0.2187700000 H         0.0000000000         0.0000000000       -98.0991151525       53.5643519647      -47.4673926997
atom         8.9446300000       10.9976300000        1.9259300000 H         0.0000000000         0.0000000000       -94.0183673609       -4.1359901565      -82.1048863400
atom         6.6119300000       12.6883300000        2.5511400000 H         0.0000000000         0.0000000000         2.5372366935     -110.1140768399       65.8526170495
atom         8.3048600000        9.8269000000        0.7904800000 H         0.0000000000         0.0000000000       -19.3190690136      114.9809098657       43.5610845884
atom         7.6435500000       11.9005300000        3.6498700000 H         0.0000000000         0.0000000000       -96.0532107130      -21.1212441394      -41.1156076236
atom         4.9742400000        9.6041600000        1.9401400000 H         0.0000000000         0.0000000000        80.7766709716       69.7593090335      -70.7503087996
atom         5.4415700000       11.1829300000        1.0661300000 H         0.0000000000         0.0000000000         6.1506775972     -109.0712114078       27.7662047547
atom         7.7260200000        8.4911700000        2.4970100000 H         0.0000000000         0.0000000000       -53.4528468347       86.1814792270       69.6393185694
atom         6.4212900000        8.9697700000        3.6255200000 H         0.0000000000         0.0000000000        73.4710991549       22.0030416713      -59.5232900423
atom         1.8707700000        2.8061100000        7.7035700000 H         0.0000000000         0.0000000000       -86.5793763876       51.5414501003       86.1276044553
atom        12.9440100000        1.4392400000        7.1791200000 H         0.0000000000         0.0000000000        37.0650684344      108.3504329553      -74.1771189470
atom         1.2648000000        4.2441400000        8.7443000000 H         0.0000000000         0.0000000000        -5.5894035657     -107.3480682224      -41.0705509664
atom         0.3322000000        1.8210300000       12.9013600000 H         0.0000000000         0.0000000000      -106.9405222678       28.6018348894       41.0297772766
atom        11.4278100000        4.1307500000        7.7532100000 H         0.0000000000         0.0000000000        90.5853151399      -31.1109237368       81.8842001488
atom        12.0163100000        2.7917700000        8.8449100000 H         0.0000000000         0.0000000000        21.7784638769      108.7204516631      -54.6726609970
atom         0.3521500000        5.6928900000        7.3553700000 H         0.0000000000         0.0000000000       -27.9707489710      -90.4043810159      -87.5241543198
atom        12.9796100000        4.6758200000       12.4802600000 H         0.0000000000         0.0000000000        94.0489761065       14.2364164843       55.6391155132
atom         4.7565700000        3.1771400000       11.0370600000 H         0.0000000000         0.0000000000        86.5719941164       22.6783397450       94.9175081062
atom         7.3138500000        1.6607200000       10.6205600000 H         0.0000000000         0.0000000000       -18.1153452685      103.1065672390      -62.9272762590
atom         5.2825200000        4.3153500000       12.3624600000 H         0.0000000000         0.0000000000        23.1480232600     -108.3088860384      -53.1061881043
atom         6.2081100000        2.5309600000        9.4224000000 H         0.0000000000         0.0000000000       109.7784050997       -4.3089164656       66.7044472896
atom         8.6911800000        4.6216800000       11.2159600000 H         0.0000000000         0.0000000000       -59.9094615078      -68.1806555658       70.8506397293
atom         8.3788300000        3.1355400000       12.2445600000 H         0.0000000000         0.0000000000       -23.2995385847      100.8998393090      -39.5974417118
atom         6.0547900000        5.8297700000       10.8442600000 H         0.0000000000         0.0000000000        51.1751459950      -99.8477365775      -73.6683669825
atom         7.3603100000        5.4696900000        9.7205700000 H         0.0000000000         0.0000000000       -88.1792686427      -58.5483904078       40.2876364019
atom        11.6840100000       11.2574300000       11.7660600000 H         0.0000000000         0.0000000000        84.6043232452      -36.7481634664      -65.8127418821
atom         0.8567400000       12.5024300000       12.2698600000 H         0.0000000000         0.0000000000       -40.4322377527      -89.6938582500       56.7050917818
atom        12.1041100000        9.9798500000       10.6343600000 H         0.0000000000         0.0000000000        42.7267871712       96.6862321213       61.0873614058
atom        13.1322100000       12.1767300000        6.8390400000 H         0.0000000000         0.0000000000       108.8341394058      -18.1838983248      -65.1603780919
atom         2.1019500000        9.6547400000       11.7508600000 H         0.0000000000         0.0000000000       -99.0075644461       59.1067957203      -65.1958470162
atom         1.4711500000       11.0183300000       10.7186600000 H         0.0000000000         0.0000000000       -15.8246479546      -98.3716269424       26.2476229422
atom        12.7438100000        8.3828800000       12.1343600000 H         0.0000000000         0.0000000000        52.1335558232       93.1706241262       73.7479765796
atom         0.6463300000        8.9197600000        6.6740100000 H         0.0000000000         0.0000000000      -103.3088696264       54.1911908891      -40.5752753788
atom         9.0228300000       11.1811300000        8.3727400000 H         0.0000000000         0.0000000000       -94.2611284547      -35.9464095339      -82.7564895632
atom         6.2946500000       12.5305300000        8.5626600000 H         0.0000000000         0.0000000000        10.5280421917      -92.0908672271       94.2754219562
atom         8.4135300000       10.0346300000        7.0374900000 H         0.0000000000         0.0000000000       -17.1101945657       94.3107246355       71.7279566531
atom         7.2011700000       12.1788300000       10.0214600000 H         0.0000000000         0.0000000000       -71.5103741096      -57.0429201777      -70.4978919448
atom         5.1711200000        9.4807200000        8.1946400000 H         0.0000000000         0.0000000000        60.7787796996       73.5886982492      -69.0764227086
atom         5.2525100000       11.0325300000        7.2225400000 H         0.0000000000         0.0000000000        64.6689947739     -101.1967588146       46.0795376515
atom         7.7352400000        8.4591000000        8.8806000000 H         0.0000000000         0.0000000000       -54.3175164675       84.0037078649       63.4869916514
atom         6.4260000000        9.0321800000       10.0305600000 H         0.0000000000         0.0000000000        95.7025950992       22.3842189290      -59.1066872886
atom        13.4293100000        3.5064200000        1.0741300000 C         0.0000000000         0.0000000000        34.1265721391        5.8919680546       20.3995785675
atom         1.0153400000        3.2333900000        2.0355200000 C         0.0000000000         0.0000000000       -29.6881562980      -36.6075732245       46.0964452027
atom        13.0381100000        2.1913500000        0.3562400000 C         0.0000000000         0.0000000000         5.2416035630       31.0848361936       11.0290362034
atom        12.2681100000        4.0686600000        1.8784800000 C         0.0000000000         0.0000000000       -22.1987043087      -84.9224537825      -24.0479612435
atom         0.2090300000        4.6047400000        0.1260200000 C         0.0000000000         0.0000000000        20.7148273346      -17.5752156759       26.6075966443
atom         6.7211600000        3.4625400000        4.2824300000 C         0.0000000000         0.0000000000       -36.5273634746      -24.1923320024      -31.3267788895
atom         5.5222000000        2.8697400000        5.0894200000 C         0.0000000000         0.0000000000        -4.6263394884       -0.9765539210       43.5457584736
atom         7.0893400000        2.2717900000        3.3769400000 C         0.0000000000         0.0000000000        14.8052710871       10.9865654733       33.0358600265
atom         7.8883200000        4.0055400000        5.1037100000 C         0.0000000000         0.0000000000        38.2577965271      -19.9504665441        9.2373843562
atom         6.1969300000        4.6281500000        3.4199500000 C         0.0000000000         0.0000000000        11.5746460123       74.7579798160       40.8983058038
atom         0.0731200000       10.6749300000        5.4660500000 C         0.0000000000         0.0000000000        30.7071288634       -1.0967481060      -21.1360542061
atom        12.5357100000       10.9733300000        4.5466100000 C         0.0000000000         0.0000000000        -7.3626868762      -16.6927597533       26.8186966255
atom         0.4120300000       11.8944300000        6.2286900000 C         0.0000000000         0.0000000000         4.9321977570        2.8698737122       -2.2917380423
atom         1.3478400000       10.3336700000        4.6823200000 C         0.0000000000         0.0000000000        34.7886697967      -26.8021968477       20.1375203608
atom        13.3496100000        9.4018200000        6.2762900000 C         0.0000000000         0.0000000000        23.4704705924       -2.0424396817      -16.9276671160
atom         6.9035300000       10.5143300000        2.1768300000 C         0.0000000000         0.0000000000        34.2608442204      -13.5364897750       44.3478720175
atom         8.0739600000       10.8125300000        1.2701300000 C         0.0000000000         0.0000000000         3.4708210826      -54.4025185118       42.3152794957
atom         6.7263000000       11.7322300000        3.1354900000 C         0.0000000000         0.0000000000        -1.8602450969       32.9061084778      -41.9226833179
atom         5.7413600000       10.1985800000        1.3907500000 C         0.0000000000         0.0000000000       -12.7200359177       25.4882691031      -13.9120140506
atom         7.2548000000        9.2934000000        3.0849200000 C         0.0000000000         0.0000000000        24.7649488809       26.0390823064        0.0131449015
atom        13.4801100000        3.5333800000        7.4622500000 C         0.0000000000         0.0000000000       -28.1050390299       17.4736608399        8.7451806480
atom         1.0451100000        3.2581400000        8.3463300000 C         0.0000000000         0.0000000000         6.4953646938       13.6223882337      -14.5852008349
atom        13.1818100000        2.3968800000        6.5546100000 C         0.0000000000         0.0000000000       -35.0846365759      -43.4629700971       30.7435921601
atom        12.2755100000        3.7671800000        8.3663200000 C         0.0000000000         0.0000000000         9.4925467892      -24.7916306168       -0.2659757247
atom         0.0671300000        4.8737900000        6.6375800000 C         0.0000000000         0.0000000000         2.3591265481      -14.0895825531       21.7856316465
atom         6.7923300000        3.7456200000       11.0049600000 C         0.0000000000         0.0000000000        18.7465182474       13.6249716145       -2.4173477543
atom         5.5630700000        3.3936600000       11.8027600000 C         0.0000000000         0.0000000000       -11.8290889884       11.7636782273      -36.0649968010
atom         7.1178500000        2.5981900000       10.0850600000 C         0.0000000000         0.0000000000       -10.6985743243       22.6411262677        0.6726734543
atom         8.0148300000        4.0644400000       11.8442600000 C         0.0000000000         0.0000000000       -12.0129472013       15.6297950502       -0.1570252643
atom         6.5136300000        4.9901500000       10.1940600000 C         0.0000000000         0.0000000000       -57.4344497139       23.4063104469       24.0771944208
atom         0.0133900000       10.4576300000       12.0948600000 C         0.0000000000         0.0000000000        26.0951091219      -23.8247074862      -61.7545655432
atom        12.4973100000       10.8456300000       11.1927600000 C         0.0000000000         0.0000000000         6.8782766819       -0.9691049903       -1.3339483437
atom         0.4628900000       11.6986300000       12.8655600000 C         0.0000000000         0.0000000000       -22.7594145197        0.9915495294       30.6687096974
atom         1.2149500000       10.0904300000       11.1505600000 C         0.0000000000         0.0000000000         8.8406108678      -25.0960790566       44.1753377739
atom        13.2496100000        9.1437300000       12.7851000000 C         0.0000000000         0.0000000000        19.3238514642        0.1569467472       33.2861841347
atom         6.9991800000       10.4956300000        8.5006800000 C         0.0000000000         0.0000000000       -46.0577646664        8.5862800194       14.4822526993
atom         8.1596100000       10.8755300000        7.7075100000 C         0.0000000000         0.0000000000        26.4234009573       18.2246395676       -1.7002672167
atom         6.4924800000       11.7112300000        9.3395000000 C         0.0000000000         0.0000000000        -2.7342701981       34.6246186846      -25.2052660284
atom         5.8225400000       10.1422400000        7.6182000000 C         0.0000000000         0.0000000000       -22.4168666481      -22.4041928664       -4.6601088542
atom         7.3037000000        9.2919300000        9.4475800000 C         0.0000000000         0.0000000000        33.6239221264       31.7249422540      -34.5850056080
atom         0.7808300000        1.8686300000        2.6586000000 O         0.0000000000         0.0000000000       136.7350988268       43.6414604839       50.3146965654
atom        11.9101100000        2.6101500000        5.8017000000 O         0.0000000000         0.0000000000        54.0117378809     -153.8537679866      -55.1393740513
atom         1.8123600000        0.3947300000        3.9524800000 O         0.0000000000         0.0000000000        14.4726840070      271.6852309969      -97.2021250282
atom        10.5729100000        1.5658800000        4.3373900000 O         0.0000000000         0.0000000000       257.2480483909       -2.4145404314      177.1685813386
atom         2.5959500000        2.4234200000        3.7899600000 O         0.0000000000         0.0000000000      -153.7837930781     -212.8463292696      -47.0055310078
atom        12.2708100000        0.4355400000        5.1145000000 O         0.0000000000         0.0000000000      -160.3576848552      271.5949445794      -17.1924333244
atom        12.6737100000        5.0158600000        2.8270200000 O         0.0000000000         0.0000000000      -159.0883550431       17.4544908991      -37.0877614152
atom         1.1380100000        4.6087000000        5.6444600000 O         0.0000000000         0.0000000000         5.0767221097      160.9716326499       26.1691239290
atom        11.8598100000        6.7655900000        3.9318900000 O         0.0000000000         0.0000000000      -106.0667647089     -253.6379097111     -153.6226075011
atom        10.4156100000        5.2835700000        3.0517700000 O         0.0000000000         0.0000000000       279.1758937961      143.4835576906       76.9372949534
atom         2.8359600000        5.6019900000        4.6289800000 O         0.0000000000         0.0000000000      -277.1783521022       48.4776884930      145.3320345465
atom         1.1627300000        6.8228000000        5.4600800000 O         0.0000000000         0.0000000000       164.1575890186     -253.7991126471      -71.2384849802
atom         6.0655700000        1.9417800000        6.1184500000 O         0.0000000000         0.0000000000      -160.9475670078       -0.5493719022       -4.3940549263
atom         8.0856800000        2.7544800000        2.4602600000 O         0.0000000000         0.0000000000       -10.9334107055     -172.2763351322      -33.2434856098
atom         4.7178100000        0.4833100000        0.5146500000 O         0.0000000000         0.0000000000       -44.8539745779      288.4750337384     -135.6396320265
atom         9.4609900000        1.9956700000        0.9126300000 O         0.0000000000         0.0000000000      -190.4511248459      -69.0903167557      178.7322230420
atom         3.8703000000        1.5599400000        6.4000000000 O         0.0000000000         0.0000000000       250.6818490188      -66.6242128477      114.9245331985
atom         8.2661500000        0.5333000000        2.0036400000 O         0.0000000000         0.0000000000        89.9609003492      286.3496494031      -81.0854234192
atom         7.3886100000        4.7374900000        6.2262900000 O         0.0000000000         0.0000000000       168.1214381745       52.6505506203      -17.6054918269
atom         5.0737600000        4.3550300000        2.5975800000 O         0.0000000000         0.0000000000        21.0932748524      147.8633243177      -15.1677236813
atom         8.4687100000        6.7909500000        0.9445800000 O         0.0000000000         0.0000000000       100.5872905363     -240.5126363341     -155.8614358914
atom         9.5841000000        5.2734200000        6.4695300000 O         0.0000000000         0.0000000000      -284.7167431775       54.5273364326       81.6836691398
atom         3.7381100000        5.4165300000        1.0804300000 O         0.0000000000         0.0000000000       219.6568744073       32.0386248698      238.9609496583
atom         5.0642300000        6.6244300000        2.3900500000 O         0.0000000000         0.0000000000      -126.5335541271     -268.1158029666     -108.6639450349
atom        12.8958100000       12.0459300000        3.6506500000 O         0.0000000000         0.0000000000      -192.4006139936       -8.2904529893        8.9458922006
atom         1.4800600000       11.3525300000        0.8989800000 O         0.0000000000         0.0000000000         5.6308314629      172.6952621779      -17.8305594534
atom        12.0376100000       13.4242300000        2.2362500000 O         0.0000000000         0.0000000000       -69.3306524246     -195.6335999152      219.8762937210
atom         3.0093100000       12.2371300000        2.2769200000 O         0.0000000000         0.0000000000      -229.4040222592       83.0745852921     -231.9730396014
atom        10.6437100000       12.4410300000        3.6245900000 O         0.0000000000         0.0000000000       287.2139320805       42.1257287958     -122.9674726938
atom         1.7398600000       13.6401300000        0.9935800000 O         0.0000000000         0.0000000000       110.0236155836     -296.2203142297      110.1154435083
atom         0.9406900000        9.2479400000        3.8465500000 O         0.0000000000         0.0000000000       166.9441882896       11.5863899811      -21.8984697838
atom        12.4159100000        9.5357600000        0.9300900000 O         0.0000000000         0.0000000000       -52.3428990546     -175.6962730212      -28.8185488312
atom         1.7414200000        7.6615400000        2.4860000000 O         0.0000000000         0.0000000000        88.8549592795      244.5578109580      167.7943922441
atom         3.1446100000        9.1696800000        3.2504300000 O         0.0000000000         0.0000000000      -259.3432037822     -134.2395807355      -22.0783059604
atom        10.8437100000        8.7296200000        2.2500300000 O         0.0000000000         0.0000000000       187.7067345771      -60.5564549799     -201.8635555198
atom        11.8166100000        7.2966100000        0.9034100000 O         0.0000000000         0.0000000000       -43.8103512145      295.4701265804      123.2773576971
atom         7.6879500000       11.7979300000        0.3709700000 O         0.0000000000         0.0000000000       158.3342341306       33.7412928725       13.4850054160
atom         5.5882200000       11.5414300000        4.0215500000 O         0.0000000000         0.0000000000        20.3053059425      161.1618377644       -3.7360123464
atom         8.6658700000       13.6440300000        5.5440500000 O         0.0000000000         0.0000000000        72.7377295558     -220.9449676435      217.6264892270
atom         4.2865100000       12.5849300000        5.4576800000 O         0.0000000000         0.0000000000       188.3702228589       39.6262428913     -248.5487459734
atom         9.8468700000       12.3607300000        0.5091400000 O         0.0000000000         0.0000000000      -270.6784117916       85.4619535679     -152.8090594590
atom         5.3316000000       13.7743300000        3.9107700000 O         0.0000000000         0.0000000000       -77.1541375823     -257.1266682623      149.7217116027
atom         6.1448700000        9.4758200000        0.1344300000 O         0.0000000000         0.0000000000      -152.7226237847      -96.7624355645       44.2237491762
atom         8.1843300000        9.7615400000        4.1138800000 O         0.0000000000         0.0000000000        28.8370786029     -191.3463099125      -32.1813294637
atom         5.7421100000        7.4553500000        5.3947100000 O         0.0000000000         0.0000000000      -101.3990920519      239.2349120983      149.7142325499
atom         4.0492900000        8.5727700000        0.1564500000 O         0.0000000000         0.0000000000       302.6306924134       -6.1912019948      -88.9873174175
atom         9.7635200000        8.9177100000        5.3856700000 O         0.0000000000         0.0000000000      -211.0086470544      -82.0912782869     -194.4266082067
atom         8.5018900000        7.5112300000        4.2372700000 O         0.0000000000         0.0000000000       107.8817422293      277.4857073604       93.5225732430
atom         0.7440200000        2.4043900000        9.5399500000 O         0.0000000000         0.0000000000       144.2631208692      -51.4716169019      -77.1947120731
atom        12.0165100000        2.5597600000       12.2854600000 O         0.0000000000         0.0000000000        18.7571238134     -177.1175660226       -2.1588499060
atom         1.5608400000        0.7302800000       10.7470600000 O         0.0000000000         0.0000000000        51.8923139113      184.1358725602     -235.6576378935
atom        10.6773100000        1.4687400000       10.7683600000 O         0.0000000000         0.0000000000       231.3076375822      -15.6029389957      223.9235645108
atom         2.9465100000        1.6894500000        9.3760000000 O         0.0000000000         0.0000000000      -290.3146401705      -51.1956209889       97.9568447617
atom        12.1044100000        0.3029800000       11.9896600000 O         0.0000000000         0.0000000000      -139.7696474411      267.1116788724      -96.0177842497
atom        12.7021100000        4.6543800000        9.4850600000 O         0.0000000000         0.0000000000      -164.5470664475       54.0720755581      -49.4236507084
atom         1.4189300000        4.1794100000       12.3820600000 O         0.0000000000         0.0000000000       -44.9626765332      156.4693974512      -40.3516216334
atom        11.9361100000        6.3932600000       10.6707600000 O         0.0000000000         0.0000000000       -49.3290464845     -206.5695526534     -198.9305909130
atom        10.6031100000        5.5131100000        9.2195200000 O         0.0000000000         0.0000000000       262.2675439445        8.0601784259      148.6602343181
atom         2.8675300000        5.0721300000       10.7853600000 O         0.0000000000         0.0000000000      -253.4327396360       68.7579516144      201.3412127264
atom         1.3288300000        6.3979100000       11.6982600000 O         0.0000000000         0.0000000000       151.7550384663     -266.9607245528      -44.4234560965
atom         5.8061900000        2.2182700000       12.6186600000 O         0.0000000000         0.0000000000      -157.8612474901       19.9258420419      -23.2215960456
atom         8.3238100000        3.0448800000        9.3042100000 O         0.0000000000         0.0000000000       -56.0484268380     -170.0723454230      -66.5537171424
atom         5.3644500000        0.6137200000        7.7259200000 O         0.0000000000         0.0000000000      -115.6331624295      172.4719062930     -219.5354996492
atom         9.3921800000        2.3846800000        7.4704700000 O         0.0000000000         0.0000000000      -175.7618931522      -86.2553518296      234.3320121932
atom         3.5642300000        2.1955200000       12.6848600000 O         0.0000000000         0.0000000000       235.8058757763     -157.2937276287       74.8785621600
atom         8.4706800000        0.8492600000        8.7630900000 O         0.0000000000         0.0000000000        52.1961291803      298.8482991336      -98.0288871784
atom         7.6887000000        4.9942500000       12.9608600000 O         0.0000000000         0.0000000000       143.0316162730       30.1795598065      -48.2074795280
atom         5.4500100000        4.5538600000        9.2303800000 O         0.0000000000         0.0000000000        -1.3801738336      169.6086907655      -15.4090034849
atom         8.0215900000        6.4051000000        7.5448200000 O         0.0000000000         0.0000000000       107.8355443479     -234.2936673892     -184.0307420913
atom         9.8800300000        5.4143900000       12.8928300000 O         0.0000000000         0.0000000000      -258.8997822712      119.6349310027      108.7752013702