begin
comment generated by PY
lattice        13.3100000000         0.0000000000         0.0000000000
lattice         0.0000000000        13.3100000000         0.0000000000
lattice         0.0000000000         0.0000000000        13.3100000000
atom         6.5848800000        0.9959500000        1.6334000000 H         0.0000000000         0.0000000000        -9.1330958630     -141.2688382164      -16.5142135651
atom         5.4769500000        2.5743100000        9.3872400000 H         0.0000000000         0.0000000000         9.6981189119     -123.7134568313      -63.1239573466
atom        12.8714000000        8.9531700000        6.0229900000 H         0.0000000000         0.0000000000      -125.4626741424      -78.1681141990        8.8087598753
atom         1.0952000000        0.1185700000        0.1029000000 H         0.0000000000         0.0000000000        71.4440691413      121.6334482105       49.0125955010
atom         3.7256800000       12.9059000000        6.6733700000 H         0.0000000000         0.0000000000        96.8407523108      -51.6023760090       38.0965782280
atom        10.8310000000        2.5605800000       12.9967000000 H         0.0000000000         0.0000000000       -19.6383786406       59.6716994204      -99.7913989669
atom         0.0300000000        9.8730900000       10.4830000000 H         0.0000000000         0.0000000000        59.1867891700       40.3938477841       -9.2804452753
atom        11.2600000000        2.5819500000       11.5465000000 H         0.0000000000         0.0000000000       -84.0317465284       75.3004187710      106.2030495857
atom         2.9156900000       12.7581000000        1.1024200000 H         0.0000000000         0.0000000000       113.5627904716       -7.7447397825      115.9496792400
atom         5.8730700000        0.9973000000        9.8071100000 H         0.0000000000         0.0000000000       -52.6028593899       90.2155274473     -135.1932666445
atom         5.2752700000        0.1387000000        3.8590600000 H         0.0000000000         0.0000000000       -88.5562761564       31.5470499981       20.9082536530
atom         5.0828800000        9.9202300000       11.3498000000 H         0.0000000000         0.0000000000       -68.0226076295       46.9123243354     -106.7708875861
atom         3.5195800000        2.0095800000        7.1298900000 H         0.0000000000         0.0000000000       -54.2379825363       77.1322396440      -95.8329961297
atom        12.8107000000        1.6454100000        4.3350100000 H         0.0000000000         0.0000000000        32.8067730756      -36.4520808028       48.2167988986
atom         8.5470800000        2.8051000000        4.8012400000 H         0.0000000000         0.0000000000       102.5175123514       81.3160895640       -2.9066939011
atom         0.8767600000        8.6580400000       12.0092000000 H         0.0000000000         0.0000000000       -60.2888623499       23.4372786871       12.9359880898
atom         6.4344500000        9.6217000000        6.1549300000 H         0.0000000000         0.0000000000        96.7170339272       43.6632442975      -40.6800236100
atom        10.4884000000        3.4836300000        4.8234700000 H         0.0000000000         0.0000000000      -151.6397037785        5.0296869268       -7.8483571739
atom         9.0827500000        8.1159700000        9.1324600000 H         0.0000000000         0.0000000000       -29.2341722355       45.9886081505      -99.7098836785
atom         4.9044000000       12.5086000000        8.7129100000 H         0.0000000000         0.0000000000       106.9945584114      -20.0539831432      117.5746304626
atom         6.2092800000        1.0752400000       11.4771000000 H         0.0000000000         0.0000000000       -18.0626183704      -20.7534102703       70.2472188193
atom         2.5898600000        1.5597700000        6.3120400000 H         0.0000000000         0.0000000000        52.0237551255      152.5438470884        4.3980304787
atom         5.3322800000        8.0792200000        7.2080800000 H         0.0000000000         0.0000000000       -43.5130485353       80.7912193306      -41.0447894527
atom         2.8992900000        9.8834600000        9.3429600000 H         0.0000000000         0.0000000000       131.4758098351       45.4308292931      -86.1335278871
atom         7.6282400000        8.3137700000        8.0996300000 H         0.0000000000         0.0000000000       118.8145137306       20.7716381211       17.4220795569
atom         1.6641700000        3.9088700000        3.9649600000 H         0.0000000000         0.0000000000        30.5494350401      -94.0998517700      113.2904619493
atom         7.5093400000       10.7847000000        6.7200200000 H         0.0000000000         0.0000000000       -56.7819579364      -42.3623520041       53.6265703226
atom         9.2434000000       10.6754000000        3.0320400000 H         0.0000000000         0.0000000000        24.8608608918       94.1756172426       49.4797039802
atom         1.3718500000        3.2285400000        5.3078000000 H         0.0000000000         0.0000000000        28.7118185037        9.9647438756      -48.9942200298
atom         9.3007100000        2.3774400000        7.0479300000 H         0.0000000000         0.0000000000      -138.1629263300       67.5526289624       13.7047915370
atom         4.9383400000       12.8171000000       10.1174000000 H         0.0000000000         0.0000000000        64.1562587051      -47.7458415678      -60.2131392007
atom         5.1122200000        5.1234300000        1.4566600000 H         0.0000000000         0.0000000000      -126.7698496949       11.6983869199       28.4066664904
atom         5.8441600000        1.0289600000        6.5176100000 H         0.0000000000         0.0000000000       -54.4159363498       94.6542641091       29.2407761014
atom         4.3481700000        1.7132300000        2.1387300000 H         0.0000000000         0.0000000000       -43.2546570478     -106.3764170816       11.5966472688
atom        11.8420000000        3.4114100000        2.6694500000 H         0.0000000000         0.0000000000       -88.3136262620      -25.2243305961     -157.6564494392
atom        11.6870000000        3.4601000000       10.2407000000 H         0.0000000000         0.0000000000       106.9998522614       29.1280792396      -51.5971172848
atom        12.8955000000        3.2550000000        8.9828800000 H         0.0000000000         0.0000000000       -73.3845939265       59.0432588314      120.7064401520
atom         8.7491500000       11.7997000000        0.9606200000 H         0.0000000000         0.0000000000      -131.3642379605      -27.3210541119      108.0942083066
atom         4.1336100000        1.8323300000       12.3476000000 H         0.0000000000         0.0000000000        48.3301815368     -103.9419540171       14.2572081060
atom         8.7682200000       11.2911000000        4.3218900000 H         0.0000000000         0.0000000000       115.9760167921       31.6775592237     -141.9936443721
atom        12.7355000000        8.9811400000       12.6381000000 H         0.0000000000         0.0000000000        83.7097057553      -10.7124365306      -67.8870957475
atom         3.5355800000       10.9455000000        8.3510000000 H         0.0000000000         0.0000000000        27.6919635963     -109.0278417286       65.0760728880
atom         4.0097400000        8.8618200000        6.8317800000 H         0.0000000000         0.0000000000       153.8265426371       -7.4234935626        2.6122528308
atom         0.7164900000       11.2094000000       10.5994000000 H         0.0000000000         0.0000000000       -12.6516567223     -138.8631039001      -75.8363317209
atom         0.3208600000        4.8172200000       10.8997000000 H         0.0000000000         0.0000000000       -16.5565360775      108.2261045175       72.1504366797
atom         9.8109800000       12.9371000000        8.0540100000 H         0.0000000000         0.0000000000       -82.5204291077      -17.6107994916      -58.6781566702
atom        10.6511000000        4.7172500000        6.3423600000 H         0.0000000000         0.0000000000       -18.3097915577      131.0184019179       88.0865749347
atom        10.5501000000        3.4357500000        1.8842900000 H         0.0000000000         0.0000000000       -76.5910976430       23.2027680265       29.9008464392
atom        10.4697000000        1.4617500000        5.8833800000 H         0.0000000000         0.0000000000        77.3529880458        1.1665467649      108.1262675973
atom         9.1288900000        4.1366400000        4.1556700000 H         0.0000000000         0.0000000000       -20.9935390777       53.8387065799      -97.8181774437
atom         4.7267400000       10.2028000000       10.7058000000 H         0.0000000000         0.0000000000        58.5157893415      -51.1698637934      111.4478528298
atom         4.7840600000       12.2167000000        6.0538800000 H         0.0000000000         0.0000000000       -42.2871513429       27.7845166105      133.7275366972
atom         5.5995500000       10.4820000000        1.9038500000 H         0.0000000000         0.0000000000        19.2253643547       93.7186320694     -115.8169813644
atom         1.6648400000        5.7507300000        5.4708400000 H         0.0000000000         0.0000000000      -158.9193016427        7.6247889127      -79.7789402714
atom         8.9372900000        9.0564600000        7.4343100000 H         0.0000000000         0.0000000000        -5.2172055320      -32.2332136417       67.6021624528
atom         5.8557900000        2.4437300000        7.2371200000 H         0.0000000000         0.0000000000       -69.8759728137     -113.5497104546      -93.2466119329
atom        11.1474000000        2.1588200000        7.2736800000 H         0.0000000000         0.0000000000       -30.0457003622     -130.5499706461     -109.2477736140
atom         0.8714700000       10.5785000000        7.9634900000 H         0.0000000000         0.0000000000       103.0513310811      -34.2672787562      -71.3288067944
atom         0.0519300000        6.5538400000        5.2961900000 H         0.0000000000         0.0000000000       107.4650091116     -123.9214805093      -35.7098558676
atom         1.2267700000        9.9138800000        6.6898300000 H         0.0000000000         0.0000000000        37.4899592712       51.7849015519       75.3800426256
atom         7.9454200000        9.6307500000        5.2875200000 H         0.0000000000         0.0000000000      -103.2044891973       48.4260111153       69.7570622005
atom         6.7951900000        2.3378100000        3.9946200000 H         0.0000000000         0.0000000000        87.5678659968      -85.9573590145       62.3068862684
atom        11.3159000000        5.2322900000        7.4980900000 H         0.0000000000         0.0000000000       -70.6013574928       36.3945170090      -44.4937138779
atom        13.2999000000        0.1949700000        4.6411700000 H         0.0000000000         0.0000000000       -12.6653090239      184.8105187675       61.3432119822
atom         2.3196900000        4.7684200000        8.5017900000 C         0.0000000000         0.0000000000       -86.8494685886      -95.9624873386      -67.6656823354
atom        12.8187000000        0.4845700000        8.9523400000 C         0.0000000000         0.0000000000        87.9506554311      -16.5022082434        0.9729557567
atom         2.1738600000        7.3594700000        8.0298900000 C         0.0000000000         0.0000000000        36.7073128843      146.0369938133      168.4704773900
atom        10.1668000000        6.4473600000        1.1408600000 C         0.0000000000         0.0000000000       -30.6357247879        2.8597290525     -146.6540923124
atom         0.8805700000        5.4141400000       12.6129000000 C         0.0000000000         0.0000000000        33.9976354804       33.3497637477      204.0174911654
atom         7.4924500000        3.6739500000       12.1975000000 C         0.0000000000         0.0000000000        42.9711872203       69.3931784644      112.7437045561
atom         3.6582000000        3.5618500000        1.0255400000 C         0.0000000000         0.0000000000        55.1958279481        8.9922230514      -46.9127662424
atom         2.2334800000        4.7407300000       12.6439000000 C         0.0000000000         0.0000000000        -7.1766883272      -32.6243558638     -103.3662994099
atom         6.8641000000        6.1731400000       12.7632000000 C         0.0000000000         0.0000000000       -14.3160514348      -28.5052981178     -114.1541908915
atom        10.1771000000        0.8563900000        2.5518700000 C         0.0000000000         0.0000000000        -6.7372562645       10.7573474222      206.5979197444
atom         5.1438700000        6.9111400000       11.0307000000 C         0.0000000000         0.0000000000       -79.2596946180      128.9482955219      -50.3505809196
atom         8.3283000000        0.4016400000       12.6672000000 C         0.0000000000         0.0000000000       155.4892226502      -62.4819815166     -131.5406813254
atom        10.9254000000        8.6307200000        5.2310500000 C         0.0000000000         0.0000000000       191.2166944673      -85.8288712563      126.2369568616
atom        10.3497000000        8.9094100000        4.1586800000 C         0.0000000000         0.0000000000      -112.4966084392      -61.6625874832       -2.9096528911
atom         9.9498800000        2.0401400000        9.9140400000 C         0.0000000000         0.0000000000       -29.9150454463      -98.8637145909     -116.9018426495
atom         2.3295700000        1.2370800000        2.7422600000 C         0.0000000000         0.0000000000       -23.7316737349      -89.9810562590      146.7224899869
atom         8.6910900000        6.7512200000        5.1053700000 C         0.0000000000         0.0000000000       137.8262586022      -73.6168559482      -80.7002863338
atom        12.3170000000        7.4062500000        9.0965800000 C         0.0000000000         0.0000000000       -47.1468997923       96.6965212628      -63.9129226850
atom         3.7326000000        0.7297800000        2.4903400000 C         0.0000000000         0.0000000000       -15.8534096380      -11.7686165653       41.9892811141
atom         5.8406000000        5.5596800000        8.5572200000 C         0.0000000000         0.0000000000        -3.8969169123       46.5965205176      -73.0162062125
atom        13.1753000000        9.4498400000        3.7360100000 C         0.0000000000         0.0000000000        41.8120051625       14.6321920067       34.8242904112
atom         5.8574400000        1.0999700000       12.4476000000 C         0.0000000000         0.0000000000      -105.1839370758       26.0316646912     -144.8820357837
atom         6.9538500000        0.3114000000        4.8588800000 C         0.0000000000         0.0000000000       104.9536010299        9.4385243874     -114.2192926434
atom        13.2084000000       12.6902000000        2.5615500000 C         0.0000000000         0.0000000000        -0.1291729491      167.7084203067     -176.5107831095
atom        12.8453000000        3.6324300000        6.4517300000 C         0.0000000000         0.0000000000       -82.5439325178       94.1962536054       66.5469109201
atom         3.5479400000        4.1436500000       10.8321000000 C         0.0000000000         0.0000000000        54.6354568785        4.4276964107       19.9400528331
atom         2.6206100000        3.4562200000        0.2422300000 C         0.0000000000         0.0000000000       -78.1836129207       39.0373737632       24.4588578073
atom         2.1902100000        0.6761700000       10.6367000000 C         0.0000000000         0.0000000000      -103.7768902856       93.5185289299       59.8564734408
atom         2.9777000000        5.1132500000       11.4985000000 C         0.0000000000         0.0000000000       -24.5074112275     -213.1100142603       54.2959321033
atom        11.3552000000       12.9190000000       12.6371000000 C         0.0000000000         0.0000000000         4.6917918108      -35.7729699801       18.8477261192
atom         0.3084200000        2.7702900000        0.2474800000 C         0.0000000000         0.0000000000        47.3508679556        6.3247257134      -99.6109381827
atom        12.6630000000        5.9189400000        2.7579000000 C         0.0000000000         0.0000000000      -133.6796400610      -66.4416028605      -26.7091292065
atom         1.7764200000       12.7624000000        6.6929500000 C         0.0000000000         0.0000000000        26.5284958783      -24.5441540405       35.2734491923
atom         8.0224500000        3.9748500000        7.8007500000 C         0.0000000000         0.0000000000        78.6904845301        6.8691025742       74.9796185996
atom         1.6010900000        2.3526000000        0.6991700000 C         0.0000000000         0.0000000000       -19.9710731148       17.8475431259       14.8201384493
atom         6.6453600000       12.0188000000        1.4858200000 C         0.0000000000         0.0000000000        75.4532261823       29.2661368186      -46.3287032101
atom         9.3677200000        8.7647400000        3.3579000000 C         0.0000000000         0.0000000000       -60.8238974447       82.1877058753      -26.8425729394
atom         8.6882000000       12.9545000000        6.3617500000 C         0.0000000000         0.0000000000        68.6631989811       93.0139022176       17.7000096144
atom        11.4417000000       11.3789000000        6.4598500000 C         0.0000000000         0.0000000000        -5.9807602253      -67.8419026901      -28.8490553875
atom         2.3390200000       11.4590000000       12.3404000000 C         0.0000000000         0.0000000000       140.8928949481      118.7933964040       17.9254744419
atom        13.0846000000        3.0485900000       12.5719000000 O         0.0000000000         0.0000000000        80.2736543067      -39.3774722924      143.4883458954
atom         7.4588700000        1.7258300000        4.4750800000 O         0.0000000000         0.0000000000      -134.5734684444      -52.9072843466      -11.8875955752
atom        13.2594000000        1.6222100000        8.5909500000 O         0.0000000000         0.0000000000      -111.1372467363     -287.7814209073       90.0628250477
atom        10.3383000000        7.3070800000        0.3091300000 O         0.0000000000         0.0000000000       -23.7131603539     -139.9545663363      174.1140789248
atom         5.5390800000        1.6943300000        8.9090700000 O         0.0000000000         0.0000000000        44.5488549682       14.1509010208      202.7620999291
atom         9.1040400000        9.5963500000        0.0000900000 O         0.0000000000         0.0000000000      -280.6010391162     -187.7922528651      -75.1977640179
atom         9.7953300000        5.4384700000        1.5565300000 O         0.0000000000         0.0000000000        52.0711850152      138.8174075741      -26.7309467382
atom        12.1344000000        4.0210300000        5.6025100000 O         0.0000000000         0.0000000000       123.4299458275      -82.8506924873      106.1738575138
atom         6.1186600000        4.0358400000        2.4759900000 O         0.0000000000         0.0000000000       191.8886875613        5.3241195677      -91.4555078533
atom         6.8898000000        6.3348100000        0.5371700000 O         0.0000000000         0.0000000000         1.9251596904       -6.9201736352      -18.0882822373
atom         8.8750300000        2.4942200000       10.0483000000 O         0.0000000000         0.0000000000       201.3338626945      -72.6501136025      -11.1786455026
atom         6.8141600000       12.8316000000        3.8531900000 O         0.0000000000         0.0000000000        22.4588162426      138.6485388192      238.3134026308
atom         1.6420800000       10.4061000000        7.3746400000 O         0.0000000000         0.0000000000      -151.6569442059      -16.3649866216        1.9133814492
atom         8.2984300000        2.6814600000        7.1542200000 O         0.0000000000         0.0000000000        82.1801414598       61.9445555358       50.1423525174
atom         8.3608400000        8.9582400000        2.6137200000 O         0.0000000000         0.0000000000       213.1999082944      -56.3046891301      149.1736233304
atom         9.6546700000        6.2779500000        4.5137600000 O         0.0000000000         0.0000000000      -194.5388001251       93.7884719972      115.0214785840
atom         2.9656300000        0.0420000000       10.1520000000 O         0.0000000000         0.0000000000       -54.9551581267       44.1160116442       27.2344942417
atom         2.5149500000        7.5656600000        9.2794100000 O         0.0000000000         0.0000000000       -71.5763364579      -74.1434515998     -263.8926681325
atom         6.7842500000        5.9004600000       11.6377000000 O         0.0000000000         0.0000000000        17.0626716088       53.9991693487      143.2298112248
atom         8.9475700000       12.7393000000        7.6966200000 O         0.0000000000         0.0000000000        -2.1036438273       48.7672550932     -115.3390720033
atom         4.4071900000        0.4296500000        4.1157400000 O         0.0000000000         0.0000000000        30.1436067245       -7.8750243180     -133.9600406776
atom        10.6267000000        5.5719000000        6.9693700000 O         0.0000000000         0.0000000000        97.1352036903     -155.4761882727      -63.5045596196
atom         8.1998400000        3.3147500000        2.1884100000 O         0.0000000000         0.0000000000      -230.0867030545      141.9819931478      -41.8749228647
atom         5.0254400000        8.8446200000        6.7595100000 O         0.0000000000         0.0000000000       -83.7596810820      -64.6199710185       30.2703492748
atom         9.1109200000        1.1646300000       13.1270000000 O         0.0000000000         0.0000000000      -157.6975800601     -116.4762690509      -64.1800086016
atom         8.9707300000        4.7626000000        8.0059300000 O         0.0000000000         0.0000000000      -151.1704739707     -120.3481196335      -27.0119987181
atom         1.3497600000        1.3700000000       11.1514000000 O         0.0000000000         0.0000000000       155.4313579083     -130.6181777776      -97.6726130154
atom        12.6658000000       12.5660000000        9.3117100000 O         0.0000000000         0.0000000000        25.9088671825      301.6255714517      -89.2118870244
atom         5.6899100000        7.4219900000       10.1081000000 O         0.0000000000         0.0000000000       -95.6530746139      -95.5677035765      178.4482455509
atom         6.8323300000       10.1545000000        9.8215500000 O         0.0000000000         0.0000000000      -135.0603918128      -10.8862081430     -271.5801081464
atom        12.9291000000        4.7719600000        2.8252400000 O         0.0000000000         0.0000000000       -19.8150304765      201.7928242118       -8.1570503977
atom         1.7397300000        0.8336200000        0.4725200000 O         0.0000000000         0.0000000000       -52.8778231000        6.1548500638      -23.1711341215
atom         2.1065900000       12.2103000000        5.6700700000 O         0.0000000000         0.0000000000       -75.6931912610      136.3821949720      209.7928893266
atom         4.2319300000        6.8229600000       11.8213000000 O         0.0000000000         0.0000000000       176.4313744243      -10.3168422238     -119.7351905838
atom         4.5404500000        0.9427800000       12.4004000000 O         0.0000000000         0.0000000000        58.9774641634      114.9713629503       14.5762610014
atom         0.6684400000        5.7092300000        4.9567300000 O         0.0000000000         0.0000000000        50.0806469342      125.5760575026      121.1019827518
atom         8.0167700000        7.3387500000        5.7840300000 O         0.0000000000         0.0000000000        40.4519114832      -36.4156256366      -44.2461761564
atom        11.7329000000        6.3871600000        9.1582300000 O         0.0000000000         0.0000000000       122.3038363831      173.6347412174       -1.1524556600
atom        13.2309000000        1.2694800000        5.0518900000 O         0.0000000000         0.0000000000       -23.9194701424     -132.8123549460      -86.2507734597
atom         8.1798200000       12.7819000000       11.8175000000 O         0.0000000000         0.0000000000       -10.4285408232      187.7826425153      192.7405740933
atom         4.1332000000        3.3039900000       10.2091000000 O         0.0000000000         0.0000000000      -105.0469666890      147.5992522589      121.8186921503
atom         8.5083600000        3.9023600000       12.6643000000 O         0.0000000000         0.0000000000       -99.8288282348      -37.7247342981      -76.7565562961
atom         3.7338800000       12.6214000000        1.9088600000 O         0.0000000000         0.0000000000      -120.7496099972      174.1398158079      -58.3907652850
atom         6.4860900000        1.4956200000       13.2858000000 O         0.0000000000         0.0000000000        15.0117182227      -17.7390700256       42.5709402214
atom         1.6269300000        2.3071800000        2.2606300000 O         0.0000000000         0.0000000000        70.9928692490     -117.4789698093      -65.7737796099
atom         3.3842300000       12.0739000000       12.2177000000 O         0.0000000000         0.0000000000      -209.9244710350     -143.2716722659       21.0096153656
atom        10.2870000000        0.3451500000        1.5649800000 O         0.0000000000         0.0000000000        -8.1014999168       35.0002736538       59.5649430507
atom         1.3234100000       11.0849000000       12.6342000000 O         0.0000000000         0.0000000000        70.5512363767       20.4086042238      -26.6528687685
atom         5.8097900000        9.3705700000        3.7388200000 O         0.0000000000         0.0000000000        -3.5214131529     -277.0357586229     -133.6559910386
atom         1.8766500000        7.9188100000        7.0637900000 O         0.0000000000         0.0000000000        33.1560798271      -88.6594649844       87.8769345301
atom         5.5552400000       12.3798000000        9.5577300000 O         0.0000000000         0.0000000000      -160.2773627227       73.8789793260      -59.9060481373
atom         1.9704100000        3.2316900000        4.6405900000 O         0.0000000000         0.0000000000       -58.8756870048      101.2797397427      -80.3629252742
atom         6.8401500000        6.2894000000        8.4911100000 O         0.0000000000         0.0000000000      -228.9104329386     -119.2505915288       12.7722498782
atom         2.2935100000        3.7098900000        9.0703200000 O         0.0000000000         0.0000000000        -7.2268041988      236.8740983052     -135.0278264164
atom         0.5877000000       12.2595000000        1.7113300000 O         0.0000000000         0.0000000000       -82.8835642344        3.0736077645      141.9017052269
atom         0.4490300000        5.8447000000        0.4369300000 O         0.0000000000         0.0000000000        74.2052760732      -67.5108696130     -168.9506791737
atom        12.5274000000        0.3602800000        2.7099400000 O         0.0000000000         0.0000000000        88.7127902749     -175.7182248114       20.9048201106
atom        12.4600000000       11.4182000000        5.8661300000 O         0.0000000000         0.0000000000      -161.4147486835        8.5700400113      100.3561254993
atom         5.2880500000        4.2187600000        5.9076900000 O         0.0000000000         0.0000000000       -42.4781595165       89.7073179046       28.5283775136
atom         4.5682000000        5.2112400000        8.4628700000 O         0.0000000000         0.0000000000       271.7511736580       75.6865022929       28.0227607671
atom         6.3768000000        3.7367900000       12.1227000000 O         0.0000000000         0.0000000000        44.2600666072      -41.4463670036      -29.2022435515
atom         2.9752800000        2.5022300000        6.4350900000 O         0.0000000000         0.0000000000         9.5584358865     -225.8364059510      104.2058231142
atom        13.3070000000        8.8804400000       11.8812000000 O         0.0000000000         0.0000000000       -29.8373109983      -11.9597153631       58.9070856413
atom        11.0460000000        1.2993800000        6.6750300000 O         0.0000000000         0.0000000000       -58.8734996828      140.4433959420        8.0251356242
atom        11.3307000000        3.2115500000        1.6907900000 O         0.0000000000         0.0000000000       158.1543446218       -6.4635990421      126.5154788114
atom         5.7190500000       11.2528000000        1.0005200000 O         0.0000000000         0.0000000000        83.1581632650      -31.9598904128      194.2527096082
atom        10.0767000000        1.1504000000        3.7350700000 O         0.0000000000         0.0000000000        22.0406169603      -50.3625788263     -264.8498742803
atom        10.5605000000       12.1180000000       12.4010000000 O         0.0000000000         0.0000000000       107.7637330966      113.4490703203       41.7789561945
atom         5.3227600000        1.8184900000        6.5672400000 O         0.0000000000         0.0000000000       119.9472254332       18.8978674932       61.0987856995
atom        12.6765000000        8.5777100000        8.8612900000 O         0.0000000000         0.0000000000       -69.0073432526     -266.6633704489       59.9344599159