################################################################################
# Symmetry function scaling data.
################################################################################
# Col  Name     Description
################################################################################
# 1    e_index  Element index.
# 2    sf_index Symmetry function index.
# 3    sf_min   Symmetry function minimum.
# 4    sf_max   Symmetry function maximum.
# 5    sf_mean  Symmetry function mean.
# 6    sf_sigma Symmetry function sigma.
#########################################################################################################################
#        1          2                        3                        4                        5                        6
#  e_index   sf_index                   sf_min                   sf_max                  sf_mean                 sf_sigma
#########################################################################################################################
         1          1   0.0000000000000000E+00   1.9048451649873556E+01   1.0233727109079375E+01   1.5366069642734443E+00
         1          2   0.0000000000000000E+00   1.9125489159225836E+01   1.0287186617488572E+01   1.5452544476860646E+00
         1          3   0.0000000000000000E+00   1.8166535833208254E+01   9.6709456118178583E+00   1.4524172818390304E+00
         1          4   0.0000000000000000E+00   1.8905463646742497E+01   1.0181277116786031E+01   1.5348893100103334E+00
         1          5   0.0000000000000000E+00   1.6588692774402645E+01   8.5700338945278318E+00   1.2899948231611587E+00
         1          6   0.0000000000000000E+00   1.8439568902837024E+01   9.9556767237755182E+00   1.5134985326209629E+00
         1          7   0.0000000000000000E+00   1.4667800303588796E+01   7.2344266820108087E+00   1.0978526356008778E+00
         1          8   0.0000000000000000E+00   1.7784024546596285E+01   9.6407809153040223E+00   1.4850764868014139E+00
         1          9   0.0000000000000000E+00   1.2611082930217746E+01   5.8900553226896424E+00   9.1163181880422972E-01
         1         10   0.0000000000000000E+00   1.6983363337840633E+01   9.2603355818581505E+00   1.4526370020596968E+00
         1         11   0.0000000000000000E+00   1.7526717549724872E+01   9.0000848427957383E+00   1.4093909519277412E+00
         1         12   0.0000000000000000E+00   1.2693192905694403E+01   7.0058525513014587E+00   1.1505344312584918E+00
         1         13   0.0000000000000000E+00   1.6422686358687930E+01   8.0292057315963987E+00   1.3207012250836483E+00
         1         14   0.0000000000000000E+00   9.7112987762785572E+00   5.3554328500523489E+00   9.3595511129529585E-01
         1         15   0.0000000000000000E+00   1.4825418598337466E+01   6.6633953351725879E+00   1.2194543213918754E+00
         1         16   0.0000000000000000E+00   7.1742574143741944E+00   3.7317389052399452E+00   6.9529191014915293E-01
         1         17   0.0000000000000000E+00   1.2059108245851698E+01   4.5518686563751753E+00   1.1111508789659803E+00
         1         18   0.0000000000000000E+00   4.3057886156360174E+00   2.0868805434233897E+00   4.3217446467614407E-01
         1         19   0.0000000000000000E+00   3.8963891248179312E+00   5.4251585249464318E-01   3.0085549660867406E-01
         1         20   0.0000000000000000E+00   1.1956249113428647E+01   2.6413378225106126E+00   9.5836856634005818E-01
         1         21   0.0000000000000000E+00   2.9834704213454937E+00   4.0507039591759481E-01   2.5061119795224635E-01
         1         22   0.0000000000000000E+00   9.7346666162063791E+00   2.2964888951721263E+00   8.4598904903699990E-01
         1         23   0.0000000000000000E+00   3.5334850102994677E+00   4.7165312835691320E-01   2.6995383290693642E-01
         1         24   0.0000000000000000E+00   1.0763799385773392E+01   2.3013480219485811E+00   8.4591416839560840E-01
         1         25   0.0000000000000000E+00   2.7122564783970082E+00   3.5337518005998420E-01   2.2578063098393325E-01
         1         26   0.0000000000000000E+00   8.7576524104085660E+00   2.0040285755650262E+00   7.4675989814593124E-01
         1         27   0.0000000000000000E+00   9.0144578869260616E+00   1.1638243316467634E+00   4.9696745061247588E-01
         1         28   0.0000000000000000E+00   1.6496597006343688E+01   2.8954958131936692E+00   1.0408659740533817E+00
         1         29   0.0000000000000000E+00   4.7657304607363837E+00   6.0679116276319600E-01   3.1393345217972490E-01
         1         30   0.0000000000000000E+00   1.2247869580154029E+01   2.3384626443101011E+00   8.5855196994953109E-01
         1         31   0.0000000000000000E+00   8.1123934629614141E+00   9.9429284204457502E-01   4.3794934693478932E-01
         1         32   0.0000000000000000E+00   1.4767369317337675E+01   2.4947710797659184E+00   9.1442321930103265E-01
         1         33   0.0000000000000000E+00   4.3048982950504158E+00   5.1976341104341250E-01   2.7810781736092055E-01
         1         34   0.0000000000000000E+00   1.0959874149426691E+01   2.0202416487647556E+00   7.5420502703731296E-01
         1         35   0.0000000000000000E+00   7.3187969148195666E+00   8.5227608693353807E-01   3.8717940010140672E-01
         1         36   0.0000000000000000E+00   1.3251218986936607E+01   2.1588424831258677E+00   8.0681392963954168E-01
         1         37   0.0000000000000000E+00   2.6127744820025924E+00   3.0031560401596291E-01   1.9053340676537861E-01
         1         38   0.0000000000000000E+00   7.6958534105997058E+00   1.4932549290177086E+00   5.7336031290482636E-01
         1         39   0.0000000000000000E+00   5.4469978465357807E+00   5.4684763889424526E-01   2.7224342295688964E-01
         1         40   0.0000000000000000E+00   9.7030396614266188E+00   1.4335915517045028E+00   5.6733673780166505E-01
         1         41   0.0000000000000000E+00   2.9334851469382679E+00   2.8715186033448992E-01   1.7531541210556220E-01
         1         42   0.0000000000000000E+00   7.1895269618290998E+00   1.1738957731447475E+00   4.6797358049590948E-01
         2          1   3.1148653604192935E-03   2.2840426275781148E+01   1.0208981834502376E+01   2.1592891111917827E+00
         2          2   3.1668769985453895E-03   2.2966528015492703E+01   1.0257250820804680E+01   2.1715362549865813E+00
         2          3   2.6454932406605458E-03   2.1601547304491326E+01   9.6710128587304318E+00   2.0418540934987148E+00
         2          4   3.1219491312728378E-03   2.2812903053853827E+01   1.0129867071781744E+01   2.1592642535679447E+00
         2          5   1.8402575383589304E-03   1.9199490396118968E+01   8.6236356584984701E+00   1.8121011055388963E+00
         2          6   3.0243782353585537E-03   2.2478209560296776E+01   9.8582366170314373E+00   2.1338306591115006E+00
         2          7   1.0676687447398613E-03   1.6484362793955917E+01   7.3621571892465223E+00   1.5337235122472668E+00
         2          8   2.8837096214963790E-03   2.1992954532122734E+01   9.4785945974479926E+00   2.0996018020873932E+00
         2          9   5.1663095903311141E-04   1.3717371707672029E+01   6.1020099011955216E+00   1.2555733513970206E+00
         2         10   2.7062760222269265E-03   2.1375831381166428E+01   9.0196001403831776E+00   2.0594055249039296E+00
         2         11   1.3756048541569848E-03   2.1240894908108434E+01   8.9001375848788324E+00   2.0074687769641022E+00
         2         12   3.1108423086834936E-03   1.6047186762343550E+01   6.6879204130675349E+00   1.6023144838269423E+00
         2         13   5.9657729098887920E-04   2.0033775160643330E+01   7.8751909374226878E+00   1.8987320215204104E+00
         2         14   3.0509515584108767E-03   1.1882141064113190E+01   5.0558812765774173E+00   1.2547778308094000E+00
         2         15   1.1220514047317550E-04   1.8314936815893542E+01   6.4266752813487784E+00   1.7685957987421714E+00
         2         16   1.6679462018012002E-04   7.5825484658088476E+00   3.6319455278448181E+00   8.7673909687620466E-01
         2         17   4.0186684065820300E-07   1.5730680527306683E+01   4.1074077692773932E+00   1.5961215151123678E+00
         2         18   1.4340728104629505E-09   4.0316052720392062E+00   2.2094086401542303E+00   5.3603288591447240E-01
         2         19   0.0000000000000000E+00   5.1426649088028027E+00   1.0223114555499804E+00   4.4423631913201533E-01
         2         20   0.0000000000000000E+00   1.7021184848405312E+01   2.3349047320554410E+00   2.0763005744567122E+00
         2         21   0.0000000000000000E+00   4.2183550229346194E+00   8.5789390885367189E-01   3.8597420943074112E-01
         2         22   0.0000000000000000E+00   1.4653452660345947E+01   2.0003901577927219E+00   1.7925344406900838E+00
         2         23   0.0000000000000000E+00   4.7077995800950321E+00   9.2469873111157841E-01   4.0953916331973023E-01
         2         24   0.0000000000000000E+00   1.4859772232483952E+01   2.0114676102051074E+00   1.8237598373206034E+00
         2         25   0.0000000000000000E+00   3.8674106737761904E+00   7.8036106208277256E-01   3.5881392563940423E-01
         2         26   0.0000000000000000E+00   1.2799028746021575E+01   1.7244738967531728E+00   1.5749534119593414E+00
         2         27   0.0000000000000000E+00   1.0144737964644078E+01   1.6592855587767132E+00   9.3032436069379398E-01
         2         28   0.0000000000000000E+00   1.8643879088558464E+01   2.6584914977651524E+00   2.3592307927697225E+00
         2         29   0.0000000000000000E+00   5.7634206736668689E+00   1.0667323010018028E+00   5.0546245050084049E-01
         2         30   0.0000000000000000E+00   1.5172763657006724E+01   2.0659382399902411E+00   1.8846156763395689E+00
         2         31   0.0000000000000000E+00   9.1152325783560997E+00   1.4582124931147342E+00   8.3061498433511816E-01
         2         32   0.0000000000000000E+00   1.6043614417602964E+01   2.2706528943094022E+00   2.0590359465158943E+00
         2         33   0.0000000000000000E+00   5.3061650208304174E+00   9.5068566400501797E-01   4.5996837300139704E-01
         2         34   0.0000000000000000E+00   1.3107545762611357E+01   1.7631260651996867E+00   1.6418665297001491E+00
         2         35   0.0000000000000000E+00   8.2042551765969574E+00   1.2860731797253930E+00   7.4576747935411369E-01
         2         36   0.0000000000000000E+00   1.3855922798871925E+01   1.9466418422870730E+00   1.8029191148071364E+00
         2         37   0.0000000000000000E+00   3.6085709353029176E+00   6.7176805682994711E-01   3.1985894992029212E-01
         2         38   0.0000000000000000E+00   9.6061335879550516E+00   1.2518064599958310E+00   1.2048231683346580E+00
         2         39   0.0000000000000000E+00   6.0665489545987006E+00   8.9929285945594672E-01   5.5656001384447362E-01
         2         40   0.0000000000000000E+00   9.6380474634226641E+00   1.2524793619808412E+00   1.2330128848937445E+00
         2         41   0.0000000000000000E+00   4.1430918333100699E+00   6.1581853526712971E-01   3.2979259908714714E-01
         2         42   0.0000000000000000E+00   7.4838254374518431E+00   9.6900503779202440E-01   9.7332505490635579E-01
         3          1   0.0000000000000000E+00   3.1496207249563813E+01   9.7131772057825039E+00   3.7593348583970472E+00
         3          2   0.0000000000000000E+00   3.1653892179617728E+01   9.7697861949769784E+00   3.7734760817670070E+00
         3          3   0.0000000000000000E+00   2.9875762511963067E+01   9.1409775578684673E+00   3.6016249837722438E+00
         3          4   0.0000000000000000E+00   3.1389082010078290E+01   9.6810873254517098E+00   3.7376559752297061E+00
         3          5   0.0000000000000000E+00   2.6659966777490883E+01   8.0267657651081965E+00   3.2843536670807820E+00
         3          6   0.0000000000000000E+00   3.0815138043745314E+01   9.4914157384464488E+00   3.6599709574395098E+00
         3          7   0.0000000000000000E+00   2.2695872632375504E+01   6.6865818400276931E+00   2.8796861277719850E+00
         3          8   0.0000000000000000E+00   2.9990266177680315E+01   9.2249916470535709E+00   3.5482108007767472E+00
         3          9   0.0000000000000000E+00   1.8602837243022456E+01   5.3551800923007686E+00   2.4419024249710679E+00
         3         10   0.0000000000000000E+00   2.8953642949033323E+01   8.9004965519732568E+00   3.4076044927756906E+00
         3         11   0.0000000000000000E+00   2.8893787590736892E+01   8.4418058120785524E+00   3.6123099774632790E+00
         3         12   0.0000000000000000E+00   2.1371866633379575E+01   6.9245016710527860E+00   2.3556772858614123E+00
         3         13   0.0000000000000000E+00   2.6800906776365235E+01   7.4400790593601549E+00   3.4953022471031443E+00
         3         14   0.0000000000000000E+00   1.5664708803300563E+01   5.4548586574508420E+00   1.6158872974807155E+00
         3         15   0.0000000000000000E+00   2.3998859422624861E+01   6.0302915961236971E+00   3.3358387799601190E+00
         3         16   0.0000000000000000E+00   1.0031539390228819E+01   3.9660673816642280E+00   9.8435484718685773E-01
         3         17   0.0000000000000000E+00   1.9629211665361254E+01   3.8464305714689129E+00   3.0508331468620704E+00
         3         18   0.0000000000000000E+00   5.4872199980187872E+00   2.2916343500881600E+00   5.3808875212839258E-01
         3         19   0.0000000000000000E+00   5.0901664482776612E+00   4.8563075827424868E-01   7.2337795292145313E-01
         3         20   0.0000000000000000E+00   2.9376111674341225E+01   2.6578040085599115E+00   3.8435505709405220E+00
         3         21   0.0000000000000000E+00   3.5330237909401334E+00   3.3699255756044183E-01   5.0610037515260142E-01
         3         22   0.0000000000000000E+00   2.4656693457131979E+01   2.2905054531709279E+00   3.2319030502947372E+00
         3         23   0.0000000000000000E+00   4.4193061144746615E+00   4.2204931115152461E-01   6.3405903623052051E-01
         3         24   0.0000000000000000E+00   2.5709590438675420E+01   2.2975111145878682E+00   3.3908407276711432E+00
         3         25   0.0000000000000000E+00   3.0670598590425877E+00   2.9296144699114085E-01   4.4314402018399823E-01
         3         26   0.0000000000000000E+00   2.1565248157171414E+01   1.9815357359302974E+00   2.8498300847573406E+00
         3         27   0.0000000000000000E+00   1.4196198470344509E+01   1.1955328006011601E+00   1.9153271644460583E+00
         3         28   0.0000000000000000E+00   3.5006981559669804E+01   2.9527433205829565E+00   4.6434512048180210E+00
         3         29   0.0000000000000000E+00   6.4603509568908750E+00   5.8750594112363919E-01   9.0326282624317977E-01
         3         30   0.0000000000000000E+00   2.7271134046216144E+01   2.3447164611054379E+00   3.6243591129656614E+00
         3         31   0.0000000000000000E+00   1.2306732266901747E+01   1.0255071055962073E+00   1.6710393190538704E+00
         3         32   0.0000000000000000E+00   3.0436803505554913E+01   2.5289068796243637E+00   4.0640206935902548E+00
         3         33   0.0000000000000000E+00   5.5756225638883228E+00   5.0537304985531184E-01   7.8612545462257899E-01
         3         34   0.0000000000000000E+00   2.3713911108771946E+01   2.0087728238834681E+00   3.1721138520009307E+00
         3         35   0.0000000000000000E+00   1.0699666893915296E+01   8.8297474034290702E-01   1.4619365592928391E+00
         3         36   0.0000000000000000E+00   2.6534052752196359E+01   2.1742757636988288E+00   3.5662676342279371E+00
         3         37   0.0000000000000000E+00   2.8111937666447848E+00   2.6982487572841318E-01   4.1651455294631112E-01
         3         38   0.0000000000000000E+00   1.6834992217893191E+01   1.4472402305562562E+00   2.2702935599240925E+00
         3         39   0.0000000000000000E+00   7.1439672685252988E+00   5.7548793161623668E-01   9.9399330290891807E-01
         3         40   0.0000000000000000E+00   1.7836276370591069E+01   1.4115967173689072E+00   2.4447099921300031E+00
         3         41   0.0000000000000000E+00   3.1817379066011351E+00   2.8613862804494039E-01   4.6406433941264291E-01
         3         42   0.0000000000000000E+00   1.3890208997280785E+01   1.1222474137976106E+00   1.9081772878987422E+00
         4          1   0.0000000000000000E+00   2.7232649041713739E+01   8.9243349695563090E+00   1.7665680530785315E+00
         4          2   0.0000000000000000E+00   2.7365811670892885E+01   8.9809966069082439E+00   1.7744954361822121E+00
         4          3   0.0000000000000000E+00   2.5847126415733978E+01   8.3733017144457875E+00   1.6825692382418409E+00
         4          4   0.0000000000000000E+00   2.7124631720993900E+01   8.9147947440914006E+00   1.7578491209956448E+00
         4          5   0.0000000000000000E+00   2.3097937923164483E+01   7.2994308004995103E+00   1.5208993385316012E+00
         4          6   0.0000000000000000E+00   2.6603020535495165E+01   8.7730084823002130E+00   1.7231348025109867E+00
         4          7   0.0000000000000000E+00   1.9681759696694307E+01   6.0066137596430416E+00   1.3296226365581132E+00
         4          8   0.0000000000000000E+00   2.5856158658021009E+01   8.5732688821467278E+00   1.6763927897334863E+00
         4          9   0.0000000000000000E+00   1.6130832341117422E+01   4.7224048249173736E+00   1.1416793728138752E+00
         4         10   0.0000000000000000E+00   2.4922562279396121E+01   8.3289014747956411E+00   1.6226136778451743E+00
         4         11   0.0000000000000000E+00   2.4946226797937570E+01   7.7636444675944896E+00   1.6419381469795307E+00
         4         12   0.0000000000000000E+00   1.8255847101737203E+01   6.6110439975707171E+00   1.2428001610045099E+00
         4         13   0.0000000000000000E+00   2.3075987448910901E+01   6.8472401888672989E+00   1.5514802020420724E+00
         4         14   0.0000000000000000E+00   1.3286062315877230E+01   5.2827484468494124E+00   1.0056711019726385E+00
         4         15   0.0000000000000000E+00   2.0363193413558342E+01   5.5546431925646260E+00   1.4386279488945550E+00
         4         16   0.0000000000000000E+00   8.8895341867107955E+00   3.8184955919906884E+00   7.5637331925044982E-01
         4         17   0.0000000000000000E+00   1.6616099753223367E+01   3.5313949094350598E+00   1.2804164158923890E+00
         4         18   0.0000000000000000E+00   4.9976740713924723E+00   2.1118117018444256E+00   4.5667208731364806E-01
         4         19   0.0000000000000000E+00   3.9445050969876769E+00   2.1954501630536213E-01   2.2684171481187754E-01
         4         20   0.0000000000000000E+00   2.1851207714547030E+01   2.3025236793083739E+00   1.4700712750416844E+00
         4         21   0.0000000000000000E+00   2.7011009528179892E+00   1.4660696984081822E-01   1.6615614101561543E-01
         4         22   0.0000000000000000E+00   1.8383487992350489E+01   2.0510018466525315E+00   1.2671395722820560E+00
         4         23   0.0000000000000000E+00   3.4319439155089180E+00   1.8725431622529945E-01   2.0121509871032822E-01
         4         24   0.0000000000000000E+00   1.9154718242326851E+01   2.0062239944767915E+00   1.3023406552603329E+00
         4         25   0.0000000000000000E+00   2.3469366169942787E+00   1.2525200791237590E-01   1.4747806404221556E-01
         4         26   0.0000000000000000E+00   1.6112642151768942E+01   1.7921806293183464E+00   1.1229447053682000E+00
         4         27   0.0000000000000000E+00   1.0621492677363666E+01   6.3660513161576304E-01   5.8993394479605499E-01
         4         28   0.0000000000000000E+00   2.5975117572366738E+01   2.3366009128936143E+00   1.6734864245649170E+00
         4         29   0.0000000000000000E+00   4.9383010577162674E+00   2.7461921941160788E-01   2.7747622729372939E-01
         4         30   0.0000000000000000E+00   2.0291925952719314E+01   1.9746150006894587E+00   1.3572700676330334E+00
         4         31   0.0000000000000000E+00   9.1991526878509440E+00   5.3607691391550139E-01   5.1937083459101563E-01
         4         32   0.0000000000000000E+00   2.2575473443821423E+01   2.0095020715672680E+00   1.4756970457526941E+00
         4         33   0.0000000000000000E+00   4.2639191041468480E+00   2.3139702436190962E-01   2.4425849336240546E-01
         4         34   0.0000000000000000E+00   1.7640239860117358E+01   1.7048221820136744E+00   1.1975661273556362E+00
         4         35   0.0000000000000000E+00   7.9909338497424658E+00   4.5351265607911562E-01   4.5897575830515974E-01
         4         36   0.0000000000000000E+00   1.9680310607149536E+01   1.7364979025322596E+00   1.3073515715108290E+00
         4         37   0.0000000000000000E+00   2.1939836206014505E+00   1.1289445354576796E-01   1.3757835059801840E-01
         4         38   0.0000000000000000E+00   1.2580488011041101E+01   1.3040205220616281E+00   8.9615208236366328E-01
         4         39   0.0000000000000000E+00   5.3238223871518553E+00   2.8202515959958901E-01   3.2340927776198197E-01
         4         40   0.0000000000000000E+00   1.3258449775793656E+01   1.1508180340718448E+00   9.3336854970526018E-01
         4         41   0.0000000000000000E+00   2.4341850202908066E+00   1.2164234279471059E-01   1.5137921403240093E-01
         4         42   0.0000000000000000E+00   1.0368812408932591E+01   9.9043521726696593E-01   7.6043901085962307E-01
