begin
comment generated by PY
lattice        30.0000000000         0.0000000000         0.0000000000
lattice         0.0000000000        30.0000000000         0.0000000000
lattice         0.0000000000         0.0000000000        30.0000000000
atom        18.5030100000       16.0044600000       14.1415100000 N         0.0000000000         0.0000000000         0.0441378889        0.0727790895       -0.4081255787
atom        16.0301500000       11.4967700000       15.8686700000 N         0.0000000000         0.0000000000         0.0327459782       -0.0973385732        0.4485276588
atom        11.5102600000       13.9688700000       14.1297600000 N         0.0000000000         0.0000000000        -0.3022315422       -0.0788901347       -0.2892253932
atom        13.9855200000       18.4858400000       15.8352900000 N         0.0000000000         0.0000000000        -0.0699195816        0.3237470335        0.3236547913
atom        17.2943700000       15.6658700000       14.9064800000 O         0.0000000000         0.0000000000         0.4924810633       -0.0651691087        0.0873994770
atom        15.6773200000       12.6957100000       15.0954300000 O         0.0000000000         0.0000000000         0.1089380288       -0.4583975734       -0.0634395676
atom        12.7130000000       14.3165000000       14.8996800000 O         0.0000000000         0.0000000000        -0.4572676065       -0.1986666211        0.0509176900
atom        14.3375800000       17.2799700000       15.0719600000 O         0.0000000000         0.0000000000        -0.2149704286        0.4408254358       -0.0601419092
atom        18.4083500000       15.9685000000       12.9264400000 O         0.0000000000         0.0000000000         0.0778524101       -0.0725484840        0.4823113617
atom        15.9985000000       11.6014700000       17.0830500000 O         0.0000000000         0.0000000000         0.0309241949       -0.1421913390       -0.4872463189
atom        11.6125600000       13.9965700000       12.9151000000 O         0.0000000000         0.0000000000        -0.1061015814       -0.0591503057        0.5126821034
atom        14.0146400000       18.3907100000       17.0505700000 O         0.0000000000         0.0000000000        -0.0804351915        0.0889906548       -0.5962996505
atom        19.4340400000       16.2759700000       14.8673500000 O         0.0000000000         0.0000000000         0.2446493539        0.1766207372        0.1384785908
atom        16.3063400000       10.5619500000       15.1494200000 O         0.0000000000         0.0000000000         0.0480581821       -0.2349178026       -0.0935797038
atom        10.5749800000       13.7005600000       14.8516500000 O         0.0000000000         0.0000000000        -0.0533851686       -0.0155889305       -0.0176182587
atom        13.7127600000       19.4158900000       15.1083200000 O         0.0000000000         0.0000000000         0.0456137640       -0.0245364231        0.0055345315
atom        16.4373000000       14.4513900000       13.4389700000 H         0.0000000000         0.0000000000        -0.0466745492        0.2143477938       -0.2190982667
atom        15.9245100000       16.1763900000       13.4133800000 H         0.0000000000         0.0000000000         0.0755002342       -0.0382805097       -0.0786825898
atom        16.2057300000       14.0778200000       16.5704300000 H         0.0000000000         0.0000000000        -0.1194997598       -0.0855776937        0.1508851656
atom        14.4786700000       13.5705800000       16.5661100000 H         0.0000000000         0.0000000000         0.2181989053        0.0094548247        0.1553127909
atom        14.0927900000       13.7717900000       13.4285300000 H         0.0000000000         0.0000000000        -0.1007054132        0.1742224402       -0.1718702643
atom        13.5882700000       15.4995200000       13.4172800000 H         0.0000000000         0.0000000000         0.0511021744       -0.0949863973       -0.1835389016
atom        13.7917600000       15.9098500000       16.5512900000 H         0.0000000000         0.0000000000         0.1839770520        0.0643158684        0.1639835569
atom        15.5197600000       16.4127000000       16.5600300000 H         0.0000000000         0.0000000000        -0.1209295138       -0.0284797768        0.1299231275
atom        15.0050900000       14.9861400000       14.9931300000 C         0.0000000000         0.0000000000         0.0045659885        0.0213310069       -0.0067567406
atom        16.1817200000       15.3235700000       14.0594400000 C         0.0000000000         0.0000000000        -0.2890870299        0.0183561962        0.3485140621
atom        15.3458800000       13.8172400000       15.9350900000 C         0.0000000000         0.0000000000        -0.1242271721        0.2701773805       -0.3440864369
atom        13.8344300000       14.6381000000       14.0561000000 C         0.0000000000         0.0000000000         0.2939528055        0.0895902290        0.3268371470
atom        14.6583900000       16.1634800000       15.9222500000 C         0.0000000000         0.0000000000         0.1327365144       -0.2700390172       -0.3052985951
energy     -4020.4608489008
charge 0
end
begin
comment generated by PY
lattice        30.0000000000         0.0000000000         0.0000000000
lattice         0.0000000000        30.0000000000         0.0000000000
lattice         0.0000000000         0.0000000000        30.0000000000
atom        18.5937200000       16.0090100000       14.1122900000 N         0.0000000000         0.0000000000        -8.2948099383       -0.0977075419       -3.3497982648
atom        16.0301000000       11.4968200000       15.8686000000 N         0.0000000000         0.0000000000        -0.1581953594        0.5494406169        0.2581397744
atom        11.5100800000       13.9688100000       14.1296800000 N         0.0000000000         0.0000000000         0.0086938266        0.0190710732       -0.1913103063
atom        13.9855000000       18.4857700000       15.8352100000 N         0.0000000000         0.0000000000         0.1239043245       -0.3219944319        0.1076005170
atom        17.2949000000       15.6659800000       14.9050900000 O         0.0000000000         0.0000000000        18.3299071929        4.2763249628       -3.4409566111
atom        15.6770200000       12.6956100000       15.0954600000 O         0.0000000000         0.0000000000         0.1173090077       -0.7902849804        0.0882988383
atom        12.7128000000       14.3164400000       14.8995400000 O         0.0000000000         0.0000000000        -0.6196369251       -0.2439344769        0.0566597665
atom        14.3372500000       17.2798700000       15.0719900000 O         0.0000000000         0.0000000000        -0.4027985921        0.7151075939        0.1016278351
atom        18.4982900000       15.9728600000       12.8975000000 O         0.0000000000         0.0000000000        -3.3254232655       -1.7747628356        9.9054508537
atom        15.9985600000       11.6014300000       17.0830000000 O         0.0000000000         0.0000000000         0.0797433750       -0.2898019069       -0.3794382570
atom        11.6122900000       13.9964800000       12.9150000000 O         0.0000000000         0.0000000000        -0.1952305995       -0.0870074476        0.4546387041
atom        14.0146600000       18.3907600000       17.0505100000 O         0.0000000000         0.0000000000        -0.1171706444        0.2380770977       -0.4700431501
atom        19.5242000000       16.2804000000       14.8387600000 O         0.0000000000         0.0000000000       -13.6740286703       -4.4665514234       -0.2857432504
atom        16.3063700000       10.5619800000       15.1493500000 O         0.0000000000         0.0000000000         0.1362878388       -0.4895062527       -0.2046393031
atom        10.5747800000       13.7005100000       14.8515800000 O         0.0000000000         0.0000000000        -0.2051927562       -0.0620098136        0.0569826141
atom        13.7128300000       19.4158700000       15.1082300000 O         0.0000000000         0.0000000000        -0.0205930694        0.2349408631       -0.1004056260
atom        16.4374400000       14.4515800000       13.4392100000 H         0.0000000000         0.0000000000        -0.6218046166       -0.3325561629       -0.5063173922
atom        15.9247500000       16.1763700000       13.4136700000 H         0.0000000000         0.0000000000        -0.6534667490        0.1318602135       -0.4313244900
atom        16.2057600000       14.0780500000       16.5701300000 H         0.0000000000         0.0000000000        -0.1337511785       -0.0376117538       -0.0590811240
atom        14.4787600000       13.5703200000       16.5664900000 H         0.0000000000         0.0000000000         0.1553589120       -0.0126141198        0.0873072348
atom        14.0927800000       13.7718100000       13.4284800000 H         0.0000000000         0.0000000000        -0.0831102150        0.2023101877       -0.1132964724
atom        13.5882800000       15.4995200000       13.4172400000 H         0.0000000000         0.0000000000         0.0776218046       -0.1150721346       -0.1309147311
atom        13.7917000000       15.9101100000       16.5516800000 H         0.0000000000         0.0000000000         0.1248036858        0.0526702917        0.1078772436
atom        15.5199200000       16.4125300000       16.5597200000 H         0.0000000000         0.0000000000        -0.0939256121       -0.0704269136       -0.0553683758
atom        15.0046900000       14.9860300000       14.9933500000 C         0.0000000000         0.0000000000         0.0116686373       -0.0359513944        0.7034620171
atom        16.1828300000       15.3239300000       14.0605800000 C         0.0000000000         0.0000000000         8.8381856311        2.5954877393       -1.8450975070
atom        15.3456900000       13.8172000000       15.9351700000 C         0.0000000000         0.0000000000         0.0293099565        0.3150762675       -0.1787653682
atom        13.8344000000       14.6380900000       14.0560700000 C         0.0000000000         0.0000000000         0.2952211357        0.0980073291       -0.0388800839
atom        14.6582200000       16.1634100000       15.9223400000 C         0.0000000000         0.0000000000         0.2711459235       -0.2005806466       -0.1466650854
energy     -4019.1146329122
charge 0
end
begin
comment generated by PY
lattice        30.0000000000         0.0000000000         0.0000000000
lattice         0.0000000000        30.0000000000         0.0000000000
lattice         0.0000000000         0.0000000000        30.0000000000
atom        18.6844400000       16.0135700000       14.0830600000 N         0.0000000000         0.0000000000       -10.4994675099        0.9497256093       -7.7922744760
atom        16.0300400000       11.4968600000       15.8685300000 N         0.0000000000         0.0000000000        -0.3240006996        1.1067679413        0.0843554846
atom        11.5099000000       13.9687500000       14.1295900000 N         0.0000000000         0.0000000000         0.2555108720        0.1031498313       -0.1353423563
atom        13.9854800000       18.4857000000       15.8351300000 N         0.0000000000         0.0000000000         0.2882568502       -0.8723344102       -0.0690432807
atom        17.2954200000       15.6660800000       14.9037000000 O         0.0000000000         0.0000000000        26.1985351434        5.8448573175       -4.2695682222
atom        15.6767100000       12.6955200000       15.0954800000 O         0.0000000000         0.0000000000         0.1227974182       -1.0784034672        0.2276306694
atom        12.7126000000       14.3163700000       14.8994100000 O         0.0000000000         0.0000000000        -0.7470925739       -0.2761500624        0.0868460238
atom        14.3369300000       17.2797700000       15.0720100000 O         0.0000000000         0.0000000000        -0.5652601529        0.9524467540        0.2467017426
atom        18.5882200000       15.9772100000       12.8685600000 O         0.0000000000         0.0000000000        -5.5809754666       -2.8998408520       16.5687039595
atom        15.9986100000       11.6014000000       17.0829500000 O         0.0000000000         0.0000000000         0.1132042302       -0.3893773532       -0.2586009854
atom        11.6120200000       13.9963900000       12.9149100000 O         0.0000000000         0.0000000000        -0.2433118421       -0.1025963781        0.3980019981
atom        14.0146700000       18.3908100000       17.0504500000 O         0.0000000000         0.0000000000        -0.1413842199        0.3386902687       -0.3443170424
atom        19.6143700000       16.2848300000       14.8101700000 O         0.0000000000         0.0000000000       -22.9932342724       -7.5350110024       -0.3517886599
atom        16.3064000000       10.5620100000       15.1492900000 O         0.0000000000         0.0000000000         0.2054925433       -0.6884496004       -0.2616219172
atom        10.5745800000       13.7004500000       14.8515200000 O         0.0000000000         0.0000000000        -0.3086423746       -0.0951708816        0.0924036159
atom        13.7129000000       19.4158500000       15.1081500000 O         0.0000000000         0.0000000000        -0.0718797282        0.4328003651       -0.1546209744
atom        16.4375900000       14.4517700000       13.4394600000 H         0.0000000000         0.0000000000        -1.2627494880       -0.9525389962       -0.6753742696
atom        15.9249900000       16.1763500000       13.4139700000 H         0.0000000000         0.0000000000        -1.5065686622        0.2847055258       -0.6507456044
atom        16.2058000000       14.0782700000       16.5698200000 H         0.0000000000         0.0000000000        -0.1381557431        0.0088321899       -0.2437730530
atom        14.4788400000       13.5700500000       16.5668700000 H         0.0000000000         0.0000000000         0.0852548460       -0.0366893319        0.0316851930
atom        14.0927800000       13.7718300000       13.4284300000 H         0.0000000000         0.0000000000        -0.0601880303        0.2227879543       -0.0568903719
atom        13.5882900000       15.4995200000       13.4172100000 H         0.0000000000         0.0000000000         0.1037724661       -0.1252418363       -0.0829487912
atom        13.7916400000       15.9103700000       16.5520700000 H         0.0000000000         0.0000000000         0.0602341514        0.0395488398        0.0626555089
atom        15.5200800000       16.4123600000       16.5594000000 H         0.0000000000         0.0000000000        -0.0597268194       -0.1042106165       -0.2137943406
atom        15.0042900000       14.9859100000       14.9935700000 C         0.0000000000         0.0000000000        -0.2667182983       -0.2313895388        1.5666413897
atom        16.1839300000       15.3242800000       14.0617300000 C         0.0000000000         0.0000000000        16.4659000365        4.7678605437       -3.3280982891
atom        15.3455000000       13.8171700000       15.9352600000 C         0.0000000000         0.0000000000         0.1610779279        0.3698911901       -0.0447144026
atom        13.8343600000       14.6380900000       14.0560500000 C         0.0000000000         0.0000000000         0.3035921146        0.1078080620       -0.4030522582
atom        14.6580400000       16.1633300000       15.9224400000 C         0.0000000000         0.0000000000         0.4056811606       -0.1424911262       -0.0290562905
energy     -4015.9173052258
charge 0
end
begin
comment generated by PY
lattice        30.0000000000         0.0000000000         0.0000000000
lattice         0.0000000000        30.0000000000         0.0000000000
lattice         0.0000000000         0.0000000000        30.0000000000
atom        18.7751500000       16.0181200000       14.0538400000 N         0.0000000000         0.0000000000       -10.1491086039        2.2096617105      -11.9283682464
atom        16.0299900000       11.4969000000       15.8684600000 N         0.0000000000         0.0000000000        -0.4639090444        1.5822303202       -0.0692969468
atom        11.5097100000       13.9686900000       14.1295100000 N         0.0000000000         0.0000000000         0.4526785575        0.1757213759       -0.1162712831
atom        13.9854500000       18.4856300000       15.8350600000 N         0.0000000000         0.0000000000         0.4276578629       -1.3342141263       -0.2274461850
atom        17.2959500000       15.6661900000       14.9023100000 O         0.0000000000         0.0000000000        28.3933228004        5.9625583545       -4.3969085684
atom        15.6764000000       12.6954200000       15.0955000000 O         0.0000000000         0.0000000000         0.1277784965       -1.3225454890        0.3460235229
atom        12.7123900000       14.3163000000       14.8992700000 O         0.0000000000         0.0000000000        -0.8393808871       -0.2991644894        0.1363570204
atom        14.3366000000       17.2796700000       15.0720400000 O         0.0000000000         0.0000000000        -0.7007869935        1.1502601348        0.3704446433
atom        18.6781600000       15.9815700000       12.8396200000 O         0.0000000000         0.0000000000        -7.0429450289       -3.6465644571       21.0953281105
atom        15.9986600000       11.6013700000       17.0829000000 O         0.0000000000         0.0000000000         0.1424450051       -0.4735944745       -0.1564196972
atom        11.6117500000       13.9963000000       12.9148100000 O         0.0000000000         0.0000000000        -0.2816615334       -0.1167555546        0.3543253202
atom        14.0146900000       18.3908600000       17.0503800000 O         0.0000000000         0.0000000000        -0.1598095977        0.4209472434       -0.2359324667
atom        19.7045300000       16.2892600000       14.7815800000 O         0.0000000000         0.0000000000       -28.6757914530       -9.3345178060       -0.1150029529
atom        16.3064300000       10.5620400000       15.1492200000 O         0.0000000000         0.0000000000         0.2644583646       -0.8556616340       -0.3129777576
atom        10.5743800000       13.7004000000       14.8514600000 O         0.0000000000         0.0000000000        -0.3857107260       -0.1223592678        0.1241810510
atom        13.7129600000       19.4158300000       15.1080600000 O         0.0000000000         0.0000000000        -0.1138729861        0.5941780801       -0.2012955236
atom        16.4377300000       14.4519500000       13.4397000000 H         0.0000000000         0.0000000000        -1.8953233806       -1.5914314789       -0.7269145944
atom        15.9252200000       16.1763400000       13.4142600000 H         0.0000000000         0.0000000000        -2.3530521981        0.4172344952       -0.7557864005
atom        16.2058300000       14.0784900000       16.5695100000 H         0.0000000000         0.0000000000        -0.1404617979        0.0443684944       -0.4070647935
atom        14.4789300000       13.5697900000       16.5672500000 H         0.0000000000         0.0000000000         0.0170648055       -0.0576744306       -0.0210312198
atom        14.0927800000       13.7718600000       13.4283700000 H         0.0000000000         0.0000000000        -0.0336222790        0.2404292736       -0.0059035003
atom        13.5883000000       15.4995200000       13.4171700000 H         0.0000000000         0.0000000000         0.1310069733       -0.1336128152       -0.0418779552
atom        13.7915800000       15.9106300000       16.5524600000 H         0.0000000000         0.0000000000         0.0008071192        0.0226223976        0.0195784053
atom        15.5202400000       16.4121900000       16.5590900000 H         0.0000000000         0.0000000000        -0.0275804154       -0.1294619165       -0.3484218199
atom        15.0038900000       14.9857900000       14.9937900000 C         0.0000000000         0.0000000000        -0.7779475872       -0.5408390325        2.5225241654
atom        16.1850400000       15.3246300000       14.0628700000 C         0.0000000000         0.0000000000        22.9526246474        6.6826470268       -4.2403274474
atom        15.3453100000       13.8171300000       15.9353400000 C         0.0000000000         0.0000000000         0.2892715143        0.4120228113        0.0629552961
atom        13.8343200000       14.6380800000       14.0560300000 C         0.0000000000         0.0000000000         0.3052985951        0.1145648025       -0.7806917924
atom        14.6578600000       16.1632500000       15.9225300000 C         0.0000000000         0.0000000000         0.5365958917       -0.0710264879        0.0561524344
energy     -4011.7895840486
charge 0
end
begin
comment generated by PY
lattice        30.0000000000         0.0000000000         0.0000000000
lattice         0.0000000000        30.0000000000         0.0000000000
lattice         0.0000000000         0.0000000000        30.0000000000
atom        18.8658600000       16.0226800000       14.0246200000 N         0.0000000000         0.0000000000        -9.1137591798        3.2429126247      -15.0169827444
atom        16.0299400000       11.4969400000       15.8684000000 N         0.0000000000         0.0000000000        -0.5773900011        1.9679179857       -0.1949308123
atom        11.5095300000       13.9686400000       14.1294300000 N         0.0000000000         0.0000000000         0.5948007149        0.2371316152       -0.1285394946
atom        13.9854300000       18.4855600000       15.8349800000 N         0.0000000000         0.0000000000         0.5375644347       -1.6998160545       -0.3599520939
atom        17.2964700000       15.6662900000       14.9009200000 O         0.0000000000         0.0000000000        27.7832098817        5.4167151831       -4.8237362515
atom        15.6761000000       12.6953300000       15.0955200000 O         0.0000000000         0.0000000000         0.1274556489       -1.5165308189        0.4502571999
atom        12.7121900000       14.3162300000       14.8991300000 O         0.0000000000         0.0000000000        -0.8994997358       -0.3119630935        0.2087440806
atom        14.3362700000       17.2795700000       15.0720600000 O         0.0000000000         0.0000000000        -0.8123539248        1.3058035312        0.4799822463
atom        18.7680900000       15.9859200000       12.8106800000 O         0.0000000000         0.0000000000        -7.9785575829       -4.1120877399       23.9163710699
atom        15.9987100000       11.6013400000       17.0828500000 O         0.0000000000         0.0000000000         0.1639835569       -0.5396860051       -0.0680977983
atom        11.6114800000       13.9962200000       12.9147100000 O         0.0000000000         0.0000000000        -0.3122398201       -0.1281244048        0.3312417116
atom        14.0147000000       18.3909200000       17.0503200000 O         0.0000000000         0.0000000000        -0.1749373172        0.4844098715       -0.1397930420
atom        19.7947000000       16.2936900000       14.7529900000 O         0.0000000000         0.0000000000       -31.7861520478      -10.2907234293        0.2713304079
atom        16.3064600000       10.5620700000       15.1491500000 O         0.0000000000         0.0000000000         0.3089882828       -0.9865533045       -0.3512121462
atom        10.5741900000       13.7003400000       14.8513900000 O         0.0000000000         0.0000000000        -0.4387730470       -0.1423527629        0.1585412676
atom        13.7130300000       19.4158100000       15.1079800000 O         0.0000000000         0.0000000000        -0.1484407476        0.7172061037       -0.2330498982
atom        16.4378800000       14.4521400000       13.4399500000 H         0.0000000000         0.0000000000        -2.4655646118       -2.2163262089       -0.6617685463
atom        15.9254600000       16.1763200000       13.4145600000 H         0.0000000000         0.0000000000        -3.1178322123        0.5335288388       -0.7574467600
atom        16.2058600000       14.0787200000       16.5692000000 H         0.0000000000         0.0000000000        -0.1458579662        0.0679594350       -0.5413694251
atom        14.4790200000       13.5695300000       16.5676300000 H         0.0000000000         0.0000000000        -0.0518862330       -0.0713262750       -0.0660223490
atom        14.0927800000       13.7718800000       13.4283200000 H         0.0000000000         0.0000000000        -0.0071487699        0.2556031142        0.0453370374
atom        13.5883100000       15.4995200000       13.4171300000 H         0.0000000000         0.0000000000         0.1551513670       -0.1393318311       -0.0016603595
atom        13.7915200000       15.9108800000       16.5528500000 H         0.0000000000         0.0000000000        -0.0548149226        0.0005765137       -0.0165805340
atom        15.5204100000       16.4120100000       16.5587700000 H         0.0000000000         0.0000000000        -0.0034821427       -0.1451661497       -0.4522865282
atom        15.0034900000       14.9856700000       14.9940100000 C         0.0000000000         0.0000000000        -1.4419530066       -0.9319459268        3.5039580282
atom        16.1861500000       15.3249800000       14.0640200000 C         0.0000000000         0.0000000000        28.4815293966        8.4236492200       -4.6621971127
atom        15.3451200000       13.8171000000       15.9354200000 C         0.0000000000         0.0000000000         0.4182030382        0.4396032268        0.1477258706
atom        13.8342800000       14.6380700000       14.0560000000 C         0.0000000000         0.0000000000         0.2964664052        0.1184620351       -1.1525661896
atom        14.6576800000       16.1631800000       15.9226200000 C         0.0000000000         0.0000000000         0.6633366636        0.0205008272        0.1147031658
energy     -4007.2358213223
charge 0
end
begin
comment generated by PY
lattice        30.0000000000         0.0000000000         0.0000000000
lattice         0.0000000000        30.0000000000         0.0000000000
lattice         0.0000000000         0.0000000000        30.0000000000
atom        18.9565800000       16.0272300000       13.9953900000 N         0.0000000000         0.0000000000        -8.0725062555        3.9569133123      -16.9062873219
atom        16.0298800000       11.4969800000       15.8683300000 N         0.0000000000         0.0000000000        -0.6617454858        2.2653529340       -0.2973196455
atom        11.5093500000       13.9685800000       14.1293400000 N         0.0000000000         0.0000000000         0.6912860478        0.2880723658       -0.1710170241
atom        13.9854100000       18.4855000000       15.8349000000 N         0.0000000000         0.0000000000         0.6216201322       -1.9742596364       -0.4716112674
atom        17.2970000000       15.6663900000       14.8995300000 O         0.0000000000         0.0000000000        26.0131744584        4.6137238408       -5.8916932905
atom        15.6757900000       12.6952300000       15.0955500000 O         0.0000000000         0.0000000000         0.1241579905       -1.6634495703        0.5366420128
atom        12.7119900000       14.3161700000       14.8989900000 O         0.0000000000         0.0000000000        -0.9288096923       -0.3165752031        0.2938605633
atom        14.3359400000       17.2794700000       15.0720900000 O         0.0000000000         0.0000000000        -0.9001684917        1.4210370896        0.5719707723
atom        18.8580300000       15.9902800000       12.7817400000 O         0.0000000000         0.0000000000        -8.6528018856       -4.3731562039       25.6430065417
atom        15.9987700000       11.6013100000       17.0828000000 O         0.0000000000         0.0000000000         0.1811636652       -0.5890586384        0.0032054162
atom        11.6112200000       13.9961300000       12.9146200000 O         0.0000000000         0.0000000000        -0.3317951648       -0.1374639267        0.3224095218
atom        14.0147200000       18.3909700000       17.0502600000 O         0.0000000000         0.0000000000        -0.1837925677        0.5292856980       -0.0590811240
atom        19.8848600000       16.2981300000       14.7244100000 O         0.0000000000         0.0000000000       -33.3291102547      -10.7090878913        0.6490391238
atom        16.3064800000       10.5621000000       15.1490900000 O         0.0000000000         0.0000000000         0.3427028040       -1.0830847585       -0.3801531340
atom        10.5739900000       13.7002900000       14.8513300000 O         0.0000000000         0.0000000000        -0.4704582400       -0.1575957851        0.1915409118
atom        13.7131000000       19.4157900000       15.1078900000 O         0.0000000000         0.0000000000        -0.1727465652        0.8034525533       -0.2545653895
atom        16.4380200000       14.4523300000       13.4401900000 H         0.0000000000         0.0000000000        -2.9324945880       -2.8092128983       -0.4980847765
atom        15.9257000000       16.1763000000       13.4148500000 H         0.0000000000         0.0000000000        -3.7610370175        0.6363097013       -0.6780262327
atom        16.2058900000       14.0789400000       16.5689000000 H         0.0000000000         0.0000000000        -0.1517384059        0.0793513457       -0.6516219052
atom        14.4791100000       13.5692600000       16.5680000000 H         0.0000000000         0.0000000000        -0.1178394003       -0.0774142597       -0.1080156069