begin
comment generated by PY
lattice        30.0000000000         0.0000000000         0.0000000000
lattice         0.0000000000        30.0000000000         0.0000000000
lattice         0.0000000000         0.0000000000        30.0000000000
atom         9.8918100000        9.5069600000        8.7164700000 O         0.0000000000         0.0000000000         1.7512871977       -3.3050146805       -2.6841324859
atom         8.3712600000       11.1820500000        9.0794800000 O         0.0000000000         0.0000000000        -1.4720009007       -3.6441430996       -1.1925762404
atom         7.8325200000        9.3538600000        7.9474300000 O         0.0000000000         0.0000000000        -2.8776796653        0.7437487945       -0.8342845060
atom         8.5722000000       10.0810900000        8.5788500000 N         0.0000000000         0.0000000000         0.7673397351        4.3105698766        3.2992956646
atom        10.8196600000       10.2594300000        9.5376200000 C         0.0000000000         0.0000000000         1.7873538948        1.6553553180        0.4062576743
atom        10.8094200000        9.7421700000       10.9673000000 C         0.0000000000         0.0000000000        -0.7947126056        3.0869771991        0.5225520180
atom        10.8957000000        8.6485600000       10.9876200000 H         0.0000000000         0.0000000000         0.4872693795       -1.7570062136       -1.0216514586
atom         9.8761700000       10.0329800000       11.4697300000 H         0.0000000000         0.0000000000        -0.7146002618       -0.3699603718        0.7561784299
atom        11.6525300000       10.1605700000       11.5411200000 H         0.0000000000         0.0000000000        -0.6272930270        1.2046599676       -1.7655155558
atom        11.7818900000       10.0842800000        9.0276400000 H         0.0000000000         0.0000000000        -0.6857053951        0.4098781804        2.0782396474
atom        10.5633400000       11.3305600000        9.4767600000 H         0.0000000000         0.0000000000         2.3787416485       -2.3350649706        0.4356368125
energy     -1420.6861039081
charge 0
end
begin
comment generated by PY
lattice        30.0000000000         0.0000000000         0.0000000000
lattice         0.0000000000        30.0000000000         0.0000000000
lattice         0.0000000000         0.0000000000        30.0000000000
atom        10.1581800000        9.8475600000        8.4301900000 O         0.0000000000         0.0000000000       -15.5377360396        1.2133076731        3.1545446048
atom         8.0803100000       11.1978900000        8.4781100000 O         0.0000000000         0.0000000000         9.9456453888       -0.5538913027       -3.6489858147
atom         7.8921200000        9.1245900000        9.1903700000 O         0.0000000000         0.0000000000        17.2852874285        4.1777180595      -10.5198530343
atom         8.4786900000       10.0917500000        8.7500400000 N         0.0000000000         0.0000000000        13.0653916267       -2.1772847011       13.0884291141
atom        11.0201200000       10.3505900000        9.4944900000 C         0.0000000000         0.0000000000       -32.0516711976      -15.6199930143       -3.7809382704
atom        10.7015600000        9.6530000000       10.7997100000 C         0.0000000000         0.0000000000         2.5960642530        3.5466892237        2.2803192296
atom        10.8269400000        8.5676800000       10.7025100000 H         0.0000000000         0.0000000000         0.6346262813       -1.4185234899       -0.1356190829
atom         9.6591900000        9.8547100000       11.0697500000 H         0.0000000000         0.0000000000        -2.9999466909        0.2326348083        4.0079232445
atom        11.3407600000       10.0265100000       11.6103000000 H         0.0000000000         0.0000000000         1.9910938365        0.1106675699        2.3190840108
atom        12.0298400000       10.1108400000        9.1584600000 H         0.0000000000         0.0000000000         6.5464514302       -4.1407289405       -9.1400020835
atom        10.9356000000       11.4308300000        9.5587500000 H         0.0000000000         0.0000000000        -1.4752293774       14.6294271745        2.3750980820
energy     -1406.2291327359
charge 0
end
begin
comment generated by PY
lattice        30.0000000000         0.0000000000         0.0000000000
lattice         0.0000000000        30.0000000000         0.0000000000
lattice         0.0000000000         0.0000000000        30.0000000000
atom        10.2256300000        9.8437100000        8.4305300000 O         0.0000000000         0.0000000000       -11.3944934993        2.5284276657        6.0820350538
atom         7.9244300000       11.1683200000        8.4473700000 O         0.0000000000         0.0000000000        13.4314317052       -4.5372550636       -5.9573927918
atom         7.7362800000        9.0946800000        9.1605900000 O         0.0000000000         0.0000000000        22.8039994154        4.4461428384      -12.8119331434
atom         8.3221700000       10.0617600000        8.7192200000 N         0.0000000000         0.0000000000         9.5505490197        3.1661671210       20.8415929007
atom        11.0854800000       10.3451100000        9.4940600000 C         0.0000000000         0.0000000000       -46.2217091951      -17.4513694953       -9.0899606943
atom        10.7664000000        9.6481400000       10.8002200000 C         0.0000000000         0.0000000000         4.1029557629        2.8744742492        2.7034802856
atom        10.8920200000        8.5627700000       10.7034200000 H         0.0000000000         0.0000000000         0.6273622087       -1.4816863309       -0.1403003741
atom         9.7239200000        9.8499800000       11.0700500000 H         0.0000000000         0.0000000000        -3.4636251298        0.6772421740        2.7332745137
atom        11.4059900000       10.0221200000       11.6103600000 H         0.0000000000         0.0000000000         1.9798172285       -0.1526838884        2.9325868301
atom        12.0968000000       10.1067500000        9.1602400000 H         0.0000000000         0.0000000000         8.5409812883       -4.9952836682       -9.9747247399
atom        11.0010000000       11.4260900000        9.5592600000 H         0.0000000000         0.0000000000         0.0427081349       14.9258243981        2.6813421596
energy     -1396.4161551410
charge 0
end
begin
comment generated by PY
lattice        30.0000000000         0.0000000000         0.0000000000
lattice         0.0000000000        30.0000000000         0.0000000000
lattice         0.0000000000         0.0000000000        30.0000000000
atom        10.2930900000        9.8398500000        8.4308600000 O         0.0000000000         0.0000000000        -4.6367843888        5.7761830055       11.5534267962
atom         7.7685500000       11.1387400000        8.4166300000 O         0.0000000000         0.0000000000        14.7372352364       -4.4007366193       -6.9083175496
atom         7.5804400000        9.0647800000        9.1308100000 O         0.0000000000         0.0000000000        23.7628108807        3.0305480381      -12.0914755025
atom         8.1656400000       10.0317800000        8.6884100000 N         0.0000000000         0.0000000000         5.1727345851        4.4978907081       21.8343494926
atom        11.1508500000       10.3396300000        9.4936400000 C         0.0000000000         0.0000000000       -54.5806043963      -19.6071156445      -15.0427644370
atom        10.8312500000        9.6432700000       10.8007200000 C         0.0000000000         0.0000000000         4.9396616264        1.7755699547        3.2571871040
atom        10.9570900000        8.5578500000       10.7043300000 H         0.0000000000         0.0000000000         0.6122344892       -1.5054617559       -0.0529239577
atom         9.7886600000        9.8452500000       11.0703400000 H         0.0000000000         0.0000000000        -3.6080302814        0.9277950282        1.8250117697
atom        11.4712200000       10.0177300000       11.6104200000 H         0.0000000000         0.0000000000         2.0915686441       -0.2096665025        3.0998449849
atom        12.1637600000       10.1026600000        9.1620300000 H         0.0000000000         0.0000000000        10.5312680056       -5.3319215481       -9.8221100331
atom        11.0663900000       11.4213400000        9.5597800000 H         0.0000000000         0.0000000000         0.9779517201       15.0469153357        2.3477713326
energy     -1386.1359865245
charge 0
end
begin
comment generated by PY
lattice        30.0000000000         0.0000000000         0.0000000000
lattice         0.0000000000        30.0000000000         0.0000000000
lattice         0.0000000000         0.0000000000        30.0000000000
atom        10.3605400000        9.8359900000        8.4312000000 O         0.0000000000         0.0000000000         6.3250932298        9.8877403528       18.0648031329
atom         7.6126800000       11.1091700000        8.3858900000 O         0.0000000000         0.0000000000        13.3073198358       -0.9458053162       -6.7457637467
atom         7.4245900000        9.0348700000        9.1010300000 O         0.0000000000         0.0000000000        20.0800413632        0.3115480036       -8.8747827208
atom         8.0091100000       10.0017900000        8.6576000000 N         0.0000000000         0.0000000000        -1.6915373178        3.1530226086       18.4321346022
atom        11.2162200000       10.3341500000        9.4932200000 C         0.0000000000         0.0000000000       -53.5335171533      -22.9696663924      -22.5979764795
atom        10.8960900000        9.6384100000       10.8012300000 C         0.0000000000         0.0000000000         3.4923816331        0.7377069309        3.9998520527
atom        11.0221700000        8.5529400000       10.7052300000 H         0.0000000000         0.0000000000         0.6995417239       -1.3986914186       -0.0631167199
atom         9.8534000000        9.8405200000       11.0706300000 H         0.0000000000         0.0000000000        -3.6217051864        0.8521564307        1.3622326922
atom        11.5364400000       10.0133400000       11.6104800000 H         0.0000000000         0.0000000000         2.3582638819       -0.0414398048        2.6959625470
atom        12.2307200000       10.0985700000        9.1638200000 H         0.0000000000         0.0000000000        12.2176628212       -4.6608365404       -8.1335014050
atom        11.1317900000       11.4166000000        9.5602900000 H         0.0000000000         0.0000000000         0.3664782290       15.0742882062        1.8601560448
energy     -1376.9697948072
charge 0
end
begin
comment generated by PY
lattice        30.0000000000         0.0000000000         0.0000000000
lattice         0.0000000000        30.0000000000         0.0000000000
lattice         0.0000000000         0.0000000000        30.0000000000
atom        10.4279900000        9.8321300000        8.4315400000 O         0.0000000000         0.0000000000        12.9718811045       13.1164707405       23.4606946412
atom         7.4568000000       11.0795900000        8.3551500000 O         0.0000000000         0.0000000000        10.8255436588        2.8702772294       -6.4421024505
atom         7.2687500000        9.0049700000        9.0712500000 O         0.0000000000         0.0000000000        16.2469170726       -2.0663404046       -5.9387598690
atom         7.8525800000        9.9718100000        8.6267900000 N         0.0000000000         0.0000000000        -5.0621361969        1.1573627836       14.5797086330
atom        11.2815900000       10.3286700000        9.4928000000 C         0.0000000000         0.0000000000       -48.5773902956      -26.1706780014      -28.9320863836
atom        10.9609400000        9.6335500000       10.8017400000 C         0.0000000000         0.0000000000         1.2808750788        0.1398852842        4.6631425952
atom        11.0872400000        8.5480200000       10.7061400000 H         0.0000000000         0.0000000000         0.8298107597       -1.2408419674       -0.1563043944
atom         9.9181300000        9.8357800000       11.0709300000 H         0.0000000000         0.0000000000        -3.5807496531        0.6636133901        1.2223012868
atom        11.6016700000       10.0089500000       11.6105400000 H         0.0000000000         0.0000000000         2.6120452128        0.1813250890        2.1701359312
atom        12.2976800000       10.0944800000        9.1656000000 H         0.0000000000         0.0000000000        13.2430039674       -3.6494700862       -6.1785665078
atom        11.1971900000       11.4118500000        9.5608100000 H         0.0000000000         0.0000000000        -0.7898007089       14.9983959427        1.5518365179
energy     -1370.5183265458
charge 0
end
begin
comment generated by PY
lattice        30.0000000000         0.0000000000         0.0000000000
lattice         0.0000000000        30.0000000000         0.0000000000
lattice         0.0000000000         0.0000000000        30.0000000000
atom        10.4954400000        9.8282700000        8.4318700000 O         0.0000000000         0.0000000000        15.9690144085       15.4046074959       27.1301351620
atom         7.3009200000       11.0500100000        8.3244200000 O         0.0000000000         0.0000000000         9.4562544389        5.4828067137       -6.1401015137
atom         7.1129100000        8.9750600000        9.0414700000 O         0.0000000000         0.0000000000        13.7683463117       -3.7128174116       -3.9448757062
atom         7.6960500000        9.9418200000        8.5959700000 N         0.0000000000         0.0000000000        -6.9646314079       -0.4047817993       11.6722116790
atom        11.3469500000       10.3231900000        9.4923800000 C         0.0000000000         0.0000000000       -43.9024176393      -28.4724435406      -33.2133924248
atom        11.0257900000        9.6286900000       10.8022500000 C         0.0000000000         0.0000000000        -0.5356504092       -0.1393087705        5.1076346581
atom        11.1523200000        8.5431100000       10.7070500000 H         0.0000000000         0.0000000000         0.9437990485       -1.1034933435       -0.2535046043
atom         9.9828700000        9.8310500000       11.0712200000 H         0.0000000000         0.0000000000        -3.5003836433        0.5005753157        1.2118779191
atom        11.6669000000       10.0045600000       11.6106000000 H         0.0000000000         0.0000000000         2.7864751979        0.3670547427        1.7675679446
atom        12.3646400000       10.0904000000        9.1673900000 H         0.0000000000         0.0000000000        13.7751952945       -2.7469032976       -4.6686079450
atom        11.2625800000       11.4071000000        9.5613200000 H         0.0000000000         0.0000000000        -1.7960016003       14.8247269556        1.3310778918
energy     -1365.9840928753
charge 0
end
begin
comment generated by PY
lattice        30.0000000000         0.0000000000         0.0000000000
lattice         0.0000000000        30.0000000000         0.0000000000
lattice         0.0000000000         0.0000000000        30.0000000000
atom        10.5628900000        9.8244100000        8.4322100000 O         0.0000000000         0.0000000000        18.4560714510       17.0024498071       29.4326155782
atom         7.1450500000       11.0204400000        8.2936800000 O         0.0000000000         0.0000000000         8.3921715720        7.4053876620       -5.8773265691
atom         6.9570700000        8.9451600000        9.0116900000 O         0.0000000000         0.0000000000        11.4299836827       -4.9139721759       -2.4011565012
atom         7.5395300000        9.9118300000        8.5651600000 N         0.0000000000         0.0000000000        -8.3151954627       -1.6092111614        9.5111154826
atom        11.4123200000       10.3177100000        9.4919600000 C         0.0000000000         0.0000000000       -40.2032059511      -29.9949470415      -35.9676520372
atom        11.0906300000        9.6238300000       10.8027600000 C         0.0000000000         0.0000000000        -1.8485796497       -0.2794938419        5.3572881509
atom        11.2173900000        8.5381900000       10.7079600000 H         0.0000000000         0.0000000000         1.0262866287       -1.0063392547       -0.3359921845
atom        10.0476100000        9.8263200000       11.0715100000 H         0.0000000000         0.0000000000        -3.3975797203        0.3599982150        1.2251607948
atom        11.7321300000       10.0001800000       11.6106500000 H         0.0000000000         0.0000000000         2.8924153555        0.4933804247        1.4818938758
atom        12.4316000000       10.0863100000        9.1691800000 H         0.0000000000         0.0000000000        14.0468024289       -2.0618205372       -3.5766218150
atom        11.3279800000       11.4023600000        9.5618400000 H         0.0000000000         0.0000000000        -2.4791472746       14.6045679037        1.1506521642
energy     -1362.6745223528
charge 0
end
begin
comment generated by PY
lattice        30.0000000000         0.0000000000         0.0000000000
lattice         0.0000000000        30.0000000000         0.0000000000
lattice         0.0000000000         0.0000000000        30.0000000000
atom        10.6303400000        9.8205500000        8.4325500000 O         0.0000000000         0.0000000000        20.5277157817       17.9307521673       31.1478130183
atom         6.9891700000       10.9908600000        8.2629400000 O         0.0000000000         0.0000000000         7.1399838149        9.0917594170       -5.6282265295
atom         6.8012200000        8.9152500000        8.9819100000 O         0.0000000000         0.0000000000         9.6973524684       -5.8771651453       -1.1869264062
atom         7.3830000000        9.8818500000        8.5343500000 N         0.0000000000         0.0000000000        -9.2204372750       -2.6134519062        7.5946917007
atom        11.4776900000       10.3122300000        9.4915400000 C         0.0000000000         0.0000000000       -37.6290953398      -30.7808735783      -37.6519483429
atom        11.1554800000        9.6189700000       10.8032700000 C         0.0000000000         0.0000000000        -2.6835098511       -0.4428086429        5.4176606656
atom        11.2824600000        8.5332800000       10.7088600000 H         0.0000000000         0.0000000000         1.0699402461       -0.9412623882       -0.3588682482
atom        10.1123400000        9.8215800000       11.0718000000 H         0.0000000000         0.0000000000        -3.2671953818        0.2641816380        1.2374520669
atom        11.7973500000        9.9957900000       11.6107100000 H         0.0000000000         0.0000000000         2.9377293324        0.5919642675        1.2924975950
atom        12.4985600000       10.0822200000        9.1709700000 H         0.0000000000         0.0000000000        14.2164819412       -1.5747587026       -2.8151625197
atom        11.3933800000       11.3976100000        9.5623600000 H         0.0000000000         0.0000000000        -2.7889657371       14.3516167526        0.9510400606
energy     -1360.2314572259
charge 0
end
begin
comment generated by PY
lattice        30.0000000000         0.0000000000         0.0000000000
lattice         0.0000000000        30.0000000000         0.0000000000
lattice         0.0000000000         0.0000000000        30.0000000000
atom        10.6977900000        9.8167000000        8.4328900000 O         0.0000000000         0.0000000000        22.0950720484       18.4779789717       32.2298600521
atom         6.8332900000       10.9612900000        8.2322000000 O         0.0000000000         0.0000000000         6.4276204263       10.2868031361       -5.3862752597
atom         6.6453800000        8.8853400000        8.9521300000 O         0.0000000000         0.0000000000         8.4282613296       -6.5915117410       -0.2538735731
atom         7.2264700000        9.8518600000        8.5035400000 N         0.0000000000         0.0000000000       -10.1158091726       -3.3568547925        6.0918357867
atom        11.5430600000       10.3067500000        9.4911100000 C         0.0000000000         0.0000000000       -35.9152815326      -30.9171383565      -38.5246056007
atom        11.2203300000        9.6141100000       10.8037800000 C         0.0000000000         0.0000000000        -3.1738924045       -0.6183455344        5.3525607385
atom        11.3475400000        8.5283600000       10.7097700000 H         0.0000000000         0.0000000000         1.0916632823       -0.9074325643       -0.3476147007
atom        10.1770800000        9.8168500000       11.0721000000 H         0.0000000000         0.0000000000        -3.1261570702        0.2017106135        1.2406574830
atom        11.8625800000        9.9914000000       11.6107700000 H         0.0000000000         0.0000000000         2.9369913948        0.6587706751        1.1633585261
atom        12.5655200000       10.0781300000        9.1727500000 H         0.0000000000         0.0000000000        14.2596512871       -1.2662546913       -2.3221280032
atom        11.4587700000       11.3928700000        9.5628700000 H         0.0000000000         0.0000000000        -2.9081426493       14.0322742837        0.7562014904
energy     -1358.5711731770
charge 0
end
begin
comment generated by PY
lattice        30.0000000000         0.0000000000         0.0000000000
lattice         0.0000000000        30.0000000000         0.0000000000
lattice         0.0000000000         0.0000000000        30.0000000000
atom        10.7652500000        9.8128400000        8.4332200000 O         0.0000000000         0.0000000000        23.0725164365       18.6757001103       32.6526290788
atom         6.6774200000       10.9317100000        8.2014600000 O         0.0000000000         0.0000000000         5.7617009814       11.0384386380       -5.2251281502
atom         6.4895400000        8.8554400000        8.9223500000 O         0.0000000000         0.0000000000         7.2206957330       -7.0286474891        0.3752642978
atom         7.0699400000        9.8218800000        8.4727300000 N         0.0000000000         0.0000000000       -10.2275144672       -3.8389355487        5.1003705855
atom        11.6084200000       10.3012700000        9.4906900000 C         0.0000000000         0.0000000000       -34.7275018862      -30.6510888141      -38.7272386361
atom        11.2851700000        9.6092500000       10.8042900000 C         0.0000000000         0.0000000000        -3.4140218910       -0.7407278627        5.2462054911
atom        11.4126100000        8.5234500000       10.7106800000 H         0.0000000000         0.0000000000         1.1019021657       -0.8868394949       -0.3305960163
atom        10.2418200000        9.8121200000       11.0723900000 H         0.0000000000         0.0000000000        -2.9907685928        0.1597634766        1.2257373085
atom        11.9278100000        9.9870100000       11.6108300000 H         0.0000000000         0.0000000000         2.9176205345        0.6917703193        1.0763510785
atom        12.6324800000       10.0740400000        9.1745400000 H         0.0000000000         0.0000000000        14.1794928222       -1.0992040815       -2.0211417305
atom        11.5241700000       11.3881200000        9.5633900000 H         0.0000000000         0.0000000000        -2.8940987755       13.6797707468        0.6275466931
energy     -1357.6070201971
charge 0
end
begin
comment generated by PY
lattice        30.0000000000         0.0000000000         0.0000000000
lattice         0.0000000000        30.0000000000         0.0000000000
lattice         0.0000000000         0.0000000000        30.0000000000
atom        10.8327000000        9.8089800000        8.4335600000 O         0.0000000000         0.0000000000        23.3915591182       18.5709591012       32.6720921813
atom         6.5215400000       10.9021400000        8.1707200000 O         0.0000000000         0.0000000000         5.1569381097       11.4137951780       -5.0766182210
atom         6.3337000000        8.8255300000        8.8925700000 O         0.0000000000         0.0000000000         6.4998230021       -7.2712213937        0.7465852419
atom         6.9134200000        9.7918900000        8.4419100000 N         0.0000000000         0.0000000000        -9.9420940644       -4.0617465636        4.4433063910
atom        11.6737900000       10.2957900000        9.4902700000 C         0.0000000000         0.0000000000       -33.8185934468      -30.1560710905      -38.5084170960
atom        11.3500200000        9.6043900000       10.8048000000 C         0.0000000000         0.0000000000        -3.5234903124       -0.8080646629        5.1291040283
atom        11.4776900000        8.5185300000       10.7115900000 H         0.0000000000         0.0000000000         1.0886654111       -0.8602045619       -0.3181894415
atom        10.3065500000        9.8073900000       11.0726800000 H         0.0000000000         0.0000000000        -2.8750277023        0.1417993097        1.1980877114
atom        11.9930400000        9.9826200000       11.6108900000 H         0.0000000000         0.0000000000         2.8777488470        0.7141621114        1.0107668799
atom        12.6994400000       10.0699600000        9.1763300000 H         0.0000000000         0.0000000000        13.9923795356       -0.9935175900       -1.8412002744
atom        11.5895700000       11.3833700000        9.5639000000 H         0.0000000000         0.0000000000        -2.8479084978       13.3101332227        0.5445056597
energy     -1357.0986045256
charge 0
end
begin
comment generated by PY
lattice        30.0000000000         0.0000000000         0.0000000000
lattice         0.0000000000        30.0000000000         0.0000000000
lattice         0.0000000000         0.0000000000        30.0000000000
atom        10.9001500000        9.8051200000        8.4339000000 O         0.0000000000         0.0000000000        23.4140431525       18.3546511609       32.4178496395
atom         6.3656600000       10.8725600000        8.1399900000 O         0.0000000000         0.0000000000         4.7777765793       11.5723364456       -4.9669191941
atom         6.1778500000        8.7956300000        8.8628000000 O         0.0000000000         0.0000000000         5.9505899301       -7.3424784870        0.9815491656
atom         6.7568900000        9.7619000000        8.4111000000 N         0.0000000000         0.0000000000        -9.6176782750       -4.1718145592        4.0413149180
atom        11.7391600000       10.2903100000        9.4898500000 C         0.0000000000         0.0000000000       -33.0652053433      -29.5405620035      -38.0558538413
atom        11.4148600000        9.5995300000       10.8053100000 C         0.0000000000         0.0000000000        -3.5482804015       -0.8491124384        5.0084743016
atom        11.5427600000        8.5136200000       10.7125000000 H         0.0000000000         0.0000000000         1.0713238790       -0.8458609011       -0.3080428003
atom        10.3712900000        9.8026500000       11.0729700000 H         0.0000000000         0.0000000000        -2.7661357946        0.1269252563        1.1627589519
atom        12.0582600000        9.9782300000       11.6109500000 H         0.0000000000         0.0000000000         2.8336801397        0.7176211936        0.9592265551
atom        12.7664000000       10.0658700000        9.1781200000 H         0.0000000000         0.0000000000        13.7487217853       -0.9378263666       -1.7272581067
atom        11.6549600000       11.3786300000        9.5644200000 H         0.0000000000         0.0000000000        -2.7988587122       12.9161437599        0.4868773502
energy     -1356.8461530966
charge 0
end
begin
comment generated by PY
lattice        30.0000000000         0.0000000000         0.0000000000
lattice         0.0000000000        30.0000000000         0.0000000000
lattice         0.0000000000         0.0000000000        30.0000000000
atom        10.9676000000        9.8012600000        8.4342300000 O         0.0000000000         0.0000000000        23.2702375751       18.0635578633       32.0048813457
atom         6.2097900000       10.8429900000        8.1092500000 O         0.0000000000         0.0000000000         4.4271178863       11.5779862799       -4.8352895861
atom         6.0220100000        8.7657200000        8.8330200000 O         0.0000000000         0.0000000000         5.4390608541       -7.3377510747        1.0995499898
atom         6.6003600000        9.7319200000        8.3802900000 N         0.0000000000         0.0000000000        -9.1664986532       -4.2056905042        3.7588462654
atom        11.8045300000       10.2848300000        9.4894300000 C         0.0000000000         0.0000000000       -32.3772861355      -28.8616364094      -37.4632208179
atom        11.4797100000        9.5946700000       10.8058200000 C         0.0000000000         0.0000000000        -3.5160417554       -0.8642401578        4.8884441492
atom        11.6078400000        8.5087000000       10.7134000000 H         0.0000000000         0.0000000000         1.0551123137       -0.8306178788       -0.2980345225
atom        10.4360300000        9.7979200000       11.0732700000 H         0.0000000000         0.0000000000        -2.6642542935        0.1206297267        1.1215266920
atom        12.1234900000        9.9738400000       11.6110100000 H         0.0000000000         0.0000000000         2.7871208933        0.7177134358        0.9159880276