begin
comment generated by PY
lattice        30.0000000000         0.0000000000         0.0000000000
lattice         0.0000000000        30.0000000000         0.0000000000
lattice         0.0000000000         0.0000000000        30.0000000000
atom         9.8918100000        9.5069600000        8.7164700000 O         0.0000000000         0.0000000000         1.7476897522       -3.3072284932       -2.6855622398
atom         8.3712600000       11.1820500000        9.0794800000 O         0.0000000000         0.0000000000        -1.4758981333       -3.6447887950       -1.1931988752
atom         7.8325200000        9.3538600000        7.9474300000 O         0.0000000000         0.0000000000        -2.8816230190        0.7419731323       -0.8354836545
atom        10.8957000000        8.6485600000       10.9876200000 H         0.0000000000         0.0000000000         0.4838564184       -1.7582514832       -1.0226200016
atom         9.8761700000       10.0329800000       11.4697300000 H         0.0000000000         0.0000000000        -0.7180593440       -0.3715976707        0.7552790685
atom        11.6525300000       10.1605700000       11.5411200000 H         0.0000000000         0.0000000000        -0.6307521092        1.2029534870       -1.7665302199
atom        11.7818900000       10.0842800000        9.0276400000 H         0.0000000000         0.0000000000        -0.6887493875        0.4080794576        2.0770404989
atom        10.5633400000       11.3305600000        9.4767600000 H         0.0000000000         0.0000000000         2.3751442031       -2.3359873925        0.4345299062
atom         8.5722000000       10.0810900000        8.5788500000 N         0.0000000000         0.0000000000         0.7636961685        4.3102239684        3.2987191509
atom        10.8196600000       10.2594300000        9.5376200000 C         0.0000000000         0.0000000000         1.7839178731        1.6539255640        0.4053813735
atom        10.8094200000        9.7421700000       10.9673000000 C         0.0000000000         0.0000000000        -0.7982408694        3.0855474451        0.5223905941
energy     -1420.6861004490
charge 0
end
begin
comment generated by PY
lattice        30.0000000000         0.0000000000         0.0000000000
lattice         0.0000000000        30.0000000000         0.0000000000
lattice         0.0000000000         0.0000000000        30.0000000000
atom         9.9240700000        9.4961600000        8.5796800000 O         0.0000000000         0.0000000000        10.9125972275       -0.2790326309       18.3231504523
atom         8.5114500000       11.2339000000        9.0752300000 O         0.0000000000         0.0000000000        -6.6774353429        4.7972858030        2.5328783515
atom         7.7847800000        9.4207700000        8.0174500000 O         0.0000000000         0.0000000000        -2.6719795771        6.3372922597        0.3794382570
atom        10.7234500000        8.6165100000       11.1373300000 H         0.0000000000         0.0000000000        -1.5846516777        6.8541944434       -2.4204120588
atom         9.5665100000        9.9360200000       11.3985400000 H         0.0000000000         0.0000000000         7.0699950517        7.7004473738       -5.2519245070
atom        11.3646600000       10.1501900000       11.7257200000 H         0.0000000000         0.0000000000        -8.7621780649        4.1567329608       -6.8699909188
atom        11.8685200000        9.7522800000        9.1471800000 H         0.0000000000         0.0000000000       -18.0664634924       10.0265417913        9.6688957521
atom        10.7216900000       11.2212300000        9.3879600000 H         0.0000000000         0.0000000000        12.9502272499       -6.9555224914        3.1832780476
atom         8.6029500000       10.1296600000        8.5712300000 N         0.0000000000         0.0000000000        10.5649594662      -12.2897962154       -3.3333791546
atom        10.8768700000       10.1304100000        9.5337400000 C         0.0000000000         0.0000000000       -17.2579606791       -3.6017347518       10.9702716581
atom        10.5939400000        9.7190900000       11.0502000000 C         0.0000000000         0.0000000000        13.5662436689      -16.7866261383      -27.1744805958
energy     -1416.5738425223
charge 0
end
begin
comment generated by PY
lattice        30.0000000000         0.0000000000         0.0000000000
lattice         0.0000000000        30.0000000000         0.0000000000
lattice         0.0000000000         0.0000000000        30.0000000000
atom        10.0044900000        9.4596600000        8.5914400000 O         0.0000000000         0.0000000000       -33.1898014842      -18.1919589947      -33.4183776361
atom         8.6055500000       11.2852900000        9.0741800000 O         0.0000000000         0.0000000000         7.4001529176       16.1778968524        9.0504349150
atom         7.7778900000        9.5292900000        8.0797200000 O         0.0000000000         0.0000000000        -8.9627817720      -18.8661802369      -12.5218545100
atom        10.4383500000        8.6235500000       11.1433900000 H         0.0000000000         0.0000000000        -4.6489142370       -8.6608500169       -0.3792307121
atom         9.3072300000       10.0075500000       11.1514400000 H         0.0000000000         0.0000000000         8.9849429587        6.1614555812       -4.8299625995
atom        11.0870400000       10.1533200000       11.5874800000 H         0.0000000000         0.0000000000        -3.0770842240        9.8108334252       18.7218442669
atom        11.8197200000        9.4364600000        9.3662500000 H         0.0000000000         0.0000000000        20.0253878644       -6.1750382439       -5.4502913410
atom        10.9583000000       11.0369000000        9.3532800000 H         0.0000000000         0.0000000000        15.3938843411       16.6413446858        1.5009188279
atom         8.6450900000       10.1776700000        8.5920200000 N         0.0000000000         0.0000000000        23.6416738220       -2.7483791726        2.1365597733
atom        10.9076200000        9.9720300000        9.5364300000 C         0.0000000000         0.0000000000       -53.1265446020       12.8144006221       28.5892452163
atom        10.3435700000        9.6919300000       10.9422800000 C         0.0000000000         0.0000000000        27.5674553945       -6.9757696526       -3.3999088356
energy     -1413.5662122874
charge 0
end
begin
comment generated by PY
lattice        30.0000000000         0.0000000000         0.0000000000
lattice         0.0000000000        30.0000000000         0.0000000000
lattice         0.0000000000         0.0000000000        30.0000000000
atom         9.8900300000        9.4764200000        8.5553000000 O         0.0000000000         0.0000000000        32.3883321380      -38.2037411357       -7.9859369582
atom         8.8163400000       11.3017200000        9.0682200000 O         0.0000000000         0.0000000000       -23.8779521969       34.9076278267       -0.2226265305
atom         7.7752300000        9.5943900000        8.0814500000 O         0.0000000000         0.0000000000        -8.0428273302       10.6006110735       -8.1160445701
atom        10.0054000000        8.5864500000       11.1393800000 H         0.0000000000         0.0000000000        -2.4803003020        5.9531035299        1.4777199166
atom         9.3301400000       10.2873400000       11.0835300000 H         0.0000000000         0.0000000000        -0.3053216557       -1.8629233106        1.5098663205
atom        10.9929000000        9.9925800000       11.7018200000 H         0.0000000000         0.0000000000       -11.5460474209       -4.7062427594       -1.5739977046
atom        11.7597300000        9.2018800000        9.3605300000 H         0.0000000000         0.0000000000       -21.9756645308       16.3871252045        8.1937586169
atom        11.0440000000       10.9453400000        9.4538300000 H         0.0000000000         0.0000000000        10.9264796774      -12.1152048064        1.1966579574
atom         8.7176700000       10.2114300000        8.5441100000 N         0.0000000000         0.0000000000         5.0452558757      -14.1406819199       13.5726314407
atom        10.8630300000        9.8564100000        9.6100900000 C         0.0000000000         0.0000000000        -9.9518947973       12.3414979640      -18.0357929635
atom        10.2186200000        9.6576100000       10.9668200000 C         0.0000000000         0.0000000000        29.8086178136       -9.1444988904       10.0046112101
energy     -1414.3183232978
charge 0
end
begin
comment generated by PY
lattice        30.0000000000         0.0000000000         0.0000000000
lattice         0.0000000000        30.0000000000         0.0000000000
lattice         0.0000000000         0.0000000000        30.0000000000
atom         9.9494000000        9.2988200000        8.5273500000 O         0.0000000000         0.0000000000       -10.2827214191       34.8009727921       49.2403349299
atom         8.8321700000       11.4095100000        8.9772800000 O         0.0000000000         0.0000000000        15.5637483377        0.5730776786        9.6840695927
atom         7.7502200000        9.7768600000        8.0253800000 O         0.0000000000         0.0000000000       -13.4897748917      -15.2765522728       -8.6915436063
atom         9.7271700000        8.6033900000       11.0089700000 H         0.0000000000         0.0000000000        -4.7501731034       -0.0914120123       13.7894236526
atom         9.4545200000       10.3884100000       11.2757000000 H         0.0000000000         0.0000000000         8.8942458233      -11.0163235725       -0.0445990999
atom        10.9588200000        9.5769400000       11.8800200000 H         0.0000000000         0.0000000000         7.5591784567        0.9620399420        3.6004894822
atom        11.7063700000        9.0821200000        9.5418900000 H         0.0000000000         0.0000000000        -2.9056751706        0.7451324274        0.9013215191
atom        11.1146000000       10.7637400000        9.4283600000 H         0.0000000000         0.0000000000         4.9518375957        6.0250985608        3.9363202429
atom         8.7049200000       10.2836400000        8.5447700000 N         0.0000000000         0.0000000000        14.4237040257      -11.1784853461      -14.8091149646
atom        10.8316400000        9.7410500000        9.6859300000 C         0.0000000000         0.0000000000        -1.7970623855       -4.3881455601      -21.7777358473
atom        10.2122200000        9.5886000000       11.0903100000 C         0.0000000000         0.0000000000       -18.1708124721       -1.1557946664      -35.8133308499
energy     -1412.5573393703
charge 0
end
begin
comment generated by PY
lattice        30.0000000000         0.0000000000         0.0000000000
lattice         0.0000000000        30.0000000000         0.0000000000
lattice         0.0000000000         0.0000000000        30.0000000000
atom         9.7503100000        9.3754200000        8.7320100000 O         0.0000000000         0.0000000000         7.4846698261      -29.6777261430      -12.8856807760
atom         8.9662000000       11.4460400000        8.9062400000 O         0.0000000000         0.0000000000        -3.5081550480       13.5018124978        4.5040709350
atom         7.8038500000        9.8424200000        7.9179100000 O         0.0000000000         0.0000000000       -10.8760231984        0.8099095067       -6.6131886562
atom         9.6319100000        8.5705500000       11.0125300000 H         0.0000000000         0.0000000000        -5.5780006559       -6.5343446425       13.6799552312
atom         9.6200500000       10.3324400000       11.2940900000 H         0.0000000000         0.0000000000       -14.1915073677       11.9152467945       11.0492079140
atom        11.0299700000        9.3932700000       11.8410100000 H         0.0000000000         0.0000000000        -4.9727765733       -1.1706456593       -6.7326192343
atom        11.4514600000        8.8427100000        9.4270200000 H         0.0000000000         0.0000000000         4.6998319271       -6.7010954652        4.2732117888
atom        11.3391400000       10.5545000000        9.5118700000 H         0.0000000000         0.0000000000        -9.6858452549       10.7641334194       -1.2736340667
atom         8.7534200000       10.3091500000        8.5126200000 N         0.0000000000         0.0000000000        -3.5124212494       14.7959704522        2.6189864377
atom        10.7597500000        9.6443200000        9.7095800000 C         0.0000000000         0.0000000000        36.5908864077       -2.5879700007      -22.6151565878
atom        10.2335600000        9.4775900000       11.0733300000 C         0.0000000000         0.0000000000         3.5228676776       -5.1002552827       13.9820945312
energy     -1415.1395903551
charge 0
end
begin
comment generated by PY
lattice        30.0000000000         0.0000000000         0.0000000000
lattice         0.0000000000        30.0000000000         0.0000000000
lattice         0.0000000000         0.0000000000        30.0000000000
atom         9.6804100000        9.1891300000        8.8111000000 O         0.0000000000         0.0000000000       -21.0251318023       20.2568465848       -9.7836911601
atom         9.0513100000       11.4994000000        8.8727800000 O         0.0000000000         0.0000000000         8.6365211387       -3.5388716979        2.9220712203
atom         7.8155200000       10.0280600000        7.7906600000 O         0.0000000000         0.0000000000         6.3272378608       -0.2374314023        0.4503955632
atom         9.7361400000        8.4582300000       11.3813000000 H         0.0000000000         0.0000000000         6.4764626670        7.9711782075       -0.3412269289
atom         9.5841500000       10.2897300000       11.3378600000 H         0.0000000000         0.0000000000         9.5992298366      -21.3812789058        7.9239732657
atom        11.1343400000        9.5250100000       11.8385700000 H         0.0000000000         0.0000000000         6.2726304831       -0.8870470398        3.6535056821
atom        11.5637800000        8.9279300000        9.4332500000 H         0.0000000000         0.0000000000       -14.4501544742       -2.7036417095        6.9179107376
atom        11.0704900000       10.5601900000        9.5771400000 H         0.0000000000         0.0000000000        -9.3398678531        0.4493347780       -4.0341430876
atom         8.7594700000       10.3964300000        8.4573700000 N         0.0000000000         0.0000000000        -9.4784156256      -16.0415398320       -0.7419961928
atom        10.6681700000        9.5384100000        9.7434200000 C         0.0000000000         0.0000000000        57.0803908614        0.5170866681      -16.2009574004
atom        10.2809200000        9.4059200000       11.1725400000 C         0.0000000000         0.0000000000       -40.1391437487       15.5834420457        9.2684032148
energy     -1415.7277155025
charge 0
end
begin
comment generated by PY
lattice        30.0000000000         0.0000000000         0.0000000000
lattice         0.0000000000        30.0000000000         0.0000000000
lattice         0.0000000000         0.0000000000        30.0000000000
atom         9.4740400000        9.1926400000        8.8358300000 O         0.0000000000         0.0000000000        20.0032497383       14.4593556329       20.6426726136
atom         9.2242100000       11.4272100000        8.8654200000 O         0.0000000000         0.0000000000       -10.3005011016        9.8248542384        0.5543294531
atom         7.8400900000       10.1995000000        7.6505100000 O         0.0000000000         0.0000000000         5.1022384899       -7.6335026030        9.6702332639
atom        10.0978300000        8.3173600000       11.5252700000 H         0.0000000000         0.0000000000        -0.4915125203       -5.2662681679       -0.9823332242
atom         9.4268000000        9.9277900000       11.5817200000 H         0.0000000000         0.0000000000       -14.1209882119       15.8651035792        4.1490537983
atom        11.1719700000        9.6866400000       11.9233700000 H         0.0000000000         0.0000000000        -9.9792215467       -1.1235329597       -9.3408825172
atom        11.2590900000        8.6683200000        9.4964200000 H         0.0000000000         0.0000000000        11.0908322031      -12.2209604795       -2.5201950500
atom        11.2300800000       10.4019000000        9.4909600000 H         0.0000000000         0.0000000000       -11.6930814750       11.2473902636       -3.1360039242
atom         8.7604500000       10.3807000000        8.4315300000 N         0.0000000000         0.0000000000        11.5590996910        7.9073004895       -4.5150708164
atom        10.6543100000        9.5211800000        9.7707000000 C         0.0000000000         0.0000000000       -25.3439112340      -34.1147370044       13.9736082496
atom        10.2974200000        9.3677900000       11.3014900000 C         0.0000000000         0.0000000000        24.1728735454        1.0259407205      -28.4956193914
energy     -1413.2135786890
charge 0
end
begin
comment generated by PY
lattice        30.0000000000         0.0000000000         0.0000000000
lattice         0.0000000000        30.0000000000         0.0000000000
lattice         0.0000000000         0.0000000000        30.0000000000
atom         9.3049800000        9.1495500000        8.9952400000 O         0.0000000000         0.0000000000        19.1360117092       26.6040318196      -11.1962880892
atom         9.2987800000       11.5399700000        8.8570700000 O         0.0000000000         0.0000000000         4.2809140119      -22.1232981592       -4.7340999014
atom         7.9963100000       10.2420800000        7.6263800000 O         0.0000000000         0.0000000000       -17.0231120581       10.4497028473      -20.7524177615
atom        10.0982500000        8.3948600000       11.8096900000 H         0.0000000000         0.0000000000        -0.1515308610       -5.2802659205      -16.3616432989
atom         9.3675500000        9.9840700000       11.4646100000 H         0.0000000000         0.0000000000        13.5737152865       -6.2339810047       -7.7438242646
atom        11.1360300000        9.7919500000       11.6227700000 H         0.0000000000         0.0000000000         8.2283263784        7.3981235894       16.1924480582
atom        11.2144500000        8.4732200000        9.3795900000 H         0.0000000000         0.0000000000       -10.2627048635       13.4530394387        5.0852198054
atom        11.0002900000       10.2984800000        9.4917100000 H         0.0000000000         0.0000000000        -3.0656231316       -8.8834996079       -6.3079131216
atom         8.8631300000       10.4743800000        8.4243300000 N         0.0000000000         0.0000000000       -11.3786739634       -7.5414910164       14.5252626791
atom        10.5377500000        9.3135300000        9.7058400000 C         0.0000000000         0.0000000000        -2.0226867872      -20.0350271734       29.8548080912
atom        10.2427800000        9.3216700000       11.2264200000 C         0.0000000000         0.0000000000        -1.2889001495       12.2056713362        1.4541289760
energy     -1412.1364652288
charge 0
end
begin
comment generated by PY
lattice        30.0000000000         0.0000000000         0.0000000000
lattice         0.0000000000        30.0000000000         0.0000000000
lattice         0.0000000000         0.0000000000        30.0000000000
atom         9.2387200000        9.2390700000        9.0579200000 O         0.0000000000         0.0000000000       -15.8738665874      -16.2410827539      -27.3237284625
atom         9.4035000000       11.4745500000        8.8447200000 O         0.0000000000         0.0000000000         5.3829545408       24.7511859685        8.8580407629
atom         8.0353300000       10.3866100000        7.5035100000 O         0.0000000000         0.0000000000         0.8639864918       -9.4256530917       20.4102222896
atom         9.7114000000        8.4363400000       11.7232400000 H         0.0000000000         0.0000000000         0.7630965943        0.2060459965      -12.4477379087
atom         9.6035000000       10.1916600000       11.4956500000 H         0.0000000000         0.0000000000         4.6553020088        0.8893300341       -6.5983376632
atom        11.2044100000        9.4039700000       11.7860500000 H         0.0000000000         0.0000000000       -17.5357249799        0.5721552567       -5.3306993390
atom        10.7732100000        8.1073300000        9.5730600000 H         0.0000000000         0.0000000000        12.1166114998       -0.1001519600       -8.8437893443
atom        11.2572000000        9.9039300000        9.3871700000 H         0.0000000000         0.0000000000        -4.2813291017       -5.5325483158       -1.1974881372
atom         8.8268500000       10.4949400000        8.4297800000 N         0.0000000000         0.0000000000        20.8513936336      -11.0239796744      -12.9987466429
atom        10.5316100000        9.1575300000        9.7563200000 C         0.0000000000         0.0000000000       -40.2632786787       10.3498967955       24.9070522125
atom        10.2102400000        9.3039300000       11.2498500000 C         0.0000000000         0.0000000000        33.3024061401        5.6083022160       20.5545351990
energy     -1413.0835566318
charge 0
end
begin
comment generated by PY
lattice        30.0000000000         0.0000000000         0.0000000000
lattice         0.0000000000        30.0000000000         0.0000000000
lattice         0.0000000000         0.0000000000        30.0000000000
atom         9.1378600000        9.1403000000        8.9261200000 O         0.0000000000         0.0000000000        13.4019603249       24.7662214458       23.7453309853
atom         9.5472100000       11.4804100000        8.8618800000 O         0.0000000000         0.0000000000         1.6423261083      -16.7305659460       -1.5490923127
atom         8.0878100000       10.4651500000        7.5551300000 O         0.0000000000         0.0000000000       -22.1642998136       13.0829176431      -29.2202048705
atom         9.3282500000        8.8181400000       11.7257100000 H         0.0000000000         0.0000000000        -6.6340123310       -2.5911062352        0.9398787553
atom        10.2139900000       10.3598600000       11.7054600000 H         0.0000000000         0.0000000000        -2.7885275867       -2.8585394105      -10.2894089781
atom        11.0567100000        8.8301100000       11.7820900000 H         0.0000000000         0.0000000000        17.0926396104       -9.1754461458        2.4773716124
atom        10.6649400000        8.1074900000        9.6592300000 H         0.0000000000         0.0000000000         6.4081112027       -2.1061659710       -8.7631696684
atom        10.9645300000        9.8787700000        9.3534700000 H         0.0000000000         0.0000000000        15.0677159500       -2.4815225110        0.5212145062
atom         8.9369200000       10.5239500000        8.3949300000 N         0.0000000000         0.0000000000        -7.6035238905       -7.5488473312       16.2382693671
atom        10.2999900000        9.1319200000        9.7844100000 C         0.0000000000         0.0000000000        11.2686520888      -10.9967451672       17.6774551080
atom        10.2133100000        9.3189500000       11.3246100000 C         0.0000000000         0.0000000000       -25.6272331269       16.6608077883      -11.7130519096
energy     -1412.9269448402
charge 0
end
begin
comment generated by PY
lattice        30.0000000000         0.0000000000         0.0000000000
lattice         0.0000000000        30.0000000000         0.0000000000
lattice         0.0000000000         0.0000000000        30.0000000000
atom         9.1272200000        9.2183800000        8.9734000000 O         0.0000000000         0.0000000000       -11.6977397057      -31.8584929869       -5.7938243247
atom         9.6919900000       11.3573800000        8.8585800000 O         0.0000000000         0.0000000000        12.8172140089       31.6043657478        1.0268862030
atom         8.0688400000       10.6325400000        7.5456800000 O         0.0000000000         0.0000000000         8.8694557342      -13.6510142434       14.5655494565
atom         8.9699000000        9.2315400000       11.3358700000 H         0.0000000000         0.0000000000         6.7905473309        0.5008520423       11.8386165935
atom        10.3277700000       10.3890700000       11.4448400000 H         0.0000000000         0.0000000000        -3.8447929279       -3.0639166511       -2.5177506320
atom        10.5431900000        8.7636200000       12.1031800000 H         0.0000000000         0.0000000000        -1.5944293501       -3.6653126827      -21.5902535919
atom        10.5313000000        7.8771000000        9.6730500000 H         0.0000000000         0.0000000000        -6.0658465491       14.2000628310       -2.2648917230
atom        11.1483800000        9.5852300000        9.3655900000 H         0.0000000000         0.0000000000        -5.6159352574      -12.4807836740        6.9716879356
atom         8.9422400000       10.5270500000        8.3966700000 N         0.0000000000         0.0000000000         5.5754178745       -5.7357578648        5.3409151618
atom        10.3370400000        8.9683300000        9.8296500000 C         0.0000000000         0.0000000000        14.9632055464        6.2509535680      -30.7071259457
atom        10.0755500000        9.3281300000       11.2566100000 C         0.0000000000         0.0000000000       -20.1975117947       17.8965072535       23.1537587471
energy     -1412.9707402800
charge 0
end
begin
comment generated by PY
lattice        30.0000000000         0.0000000000         0.0000000000
lattice         0.0000000000        30.0000000000         0.0000000000
lattice         0.0000000000         0.0000000000        30.0000000000
atom         9.1271300000        9.1565800000        8.8909600000 O         0.0000000000         0.0000000000       -37.5331634601        8.2162426512      -20.1548497809
atom         9.8791400000       11.3673500000        8.8338700000 O         0.0000000000         0.0000000000         3.2801554098       -5.3881662247       11.1393515961
atom         8.1262300000       10.6689500000        7.6885600000 O         0.0000000000         0.0000000000        -9.8912916772       12.8448174849       -2.1634253118
atom         8.8489000000        9.2724900000       11.4022300000 H         0.0000000000         0.0000000000        -4.5796864719        3.8397196073        6.9162964992
atom        10.2243700000       10.4451800000       11.2896900000 H         0.0000000000         0.0000000000        -5.6808737606        1.8232361075       -1.1489456836
atom        10.4803000000        8.8108800000       11.8797000000 H         0.0000000000         0.0000000000         4.6820522445       -5.4951210463        4.7516950995
atom        10.2466900000        7.8265200000        9.8070900000 H         0.0000000000         0.0000000000        -8.3217907795      -19.4070653905       -3.2264243329
atom        11.0576700000        9.2491600000        9.3713700000 H         0.0000000000         0.0000000000        13.6568485621        7.5252563906       -0.6452571939
atom         9.0413100000       10.5591500000        8.4759200000 N         0.0000000000         0.0000000000        -4.6197195833       -8.5381909620      -24.7663828696
atom        10.1169000000        8.8988500000        9.7973700000 C         0.0000000000         0.0000000000        57.2805333576       -8.8728456348        2.5767164532
atom         9.9097500000        9.4009000000       11.1632700000 C         0.0000000000         0.0000000000        -8.2998140772       13.4769993481       26.7459925532
energy     -1414.6607281596
charge 0
end
begin
comment generated by PY
lattice        30.0000000000         0.0000000000         0.0000000000
lattice         0.0000000000        30.0000000000         0.0000000000
lattice         0.0000000000         0.0000000000        30.0000000000
atom         9.1281600000        9.1516300000        8.7874200000 O         0.0000000000         0.0000000000       -11.6547317837      -21.0097965379       -2.8651347272
atom        10.0061700000       11.2102400000        8.8414600000 O         0.0000000000         0.0000000000         9.3378154643        9.5633706844      -14.4023960793
atom         8.0970000000       10.9028000000        7.7686000000 O         0.0000000000         0.0000000000        15.5354299848      -20.5354180047       -4.1102198355
atom         8.8192700000        9.0886200000       11.5883000000 H         0.0000000000         0.0000000000        -1.3973308462        3.6262481143       -1.3046735643
atom         9.7675800000       10.5708800000       11.1455300000 H         0.0000000000         0.0000000000         2.1430397873       -8.8665039841        1.1042312810
atom        10.5448500000        9.1392500000       11.9425700000 H         0.0000000000         0.0000000000         2.3725844822        3.3485068741       -0.0574207646
atom         9.9699900000        7.6720400000        9.9314900000 H         0.0000000000         0.0000000000        -8.1927439528       14.9429353247       -2.2804575929
atom        11.1238900000        8.8988000000        9.4624500000 H         0.0000000000         0.0000000000        -6.6092914235       11.8355956617        7.1875116044
atom         9.1007700000       10.5358900000        8.3659900000 N         0.0000000000         0.0000000000        -3.4941572953       14.2575527772       40.3300159046