begin
comment generated by PY
lattice        30.0000000000         0.0000000000         0.0000000000
lattice         0.0000000000        30.0000000000         0.0000000000
lattice         0.0000000000         0.0000000000        30.0000000000
atom         9.8918100000        9.5069600000        8.7164700000 O         0.0000000000         0.0000000000       -95.2089102478      119.8437715068       39.8862377602
atom         8.3712600000       11.1820500000        9.0794800000 O         0.0000000000         0.0000000000        52.6130018667     -277.6727887950     -125.0651988752
atom         7.8325200000        9.3538600000        7.9474300000 O         0.0000000000         0.0000000000       191.4773769810      187.4179731323      162.4295163455
atom         8.5722000000       10.0810900000        8.5788500000 N         0.0000000000         0.0000000000       -62.9299038315       24.2080239684       -9.4080808491
atom        10.8957000000        8.6485600000       10.9876200000 H         0.0000000000         0.0000000000        -8.5596035816      117.9037485168       -0.4706230016
atom         9.8761700000       10.0329800000       11.4697300000 H         0.0000000000         0.0000000000       101.4049406560      -32.5819976707      -51.9732209315
atom        11.6525300000       10.1605700000       11.5411200000 H         0.0000000000         0.0000000000       -91.9969521092      -44.8710465130      -62.0558302199
atom        11.7818900000       10.0842800000        9.0276400000 H         0.0000000000         0.0000000000      -104.8867493875       20.1947794576       55.3295404989
atom        10.5633400000       11.3305600000        9.4767600000 H         0.0000000000         0.0000000000        26.1268442031     -118.3509873925        4.1126099062
atom        10.8196600000       10.2594300000        9.5376200000 C         0.0000000000         0.0000000000        -3.6739721269        4.3352055640      -13.9715186265
atom        10.8094200000        9.7421700000       10.9673000000 C         0.0000000000         0.0000000000        -4.4057108694       -0.4426225549        1.1765235941
energy     -1927.1853304490
charge 0
end
begin
comment generated by PY
lattice        30.0000000000         0.0000000000         0.0000000000
lattice         0.0000000000        30.0000000000         0.0000000000
lattice         0.0000000000         0.0000000000        30.0000000000
atom         9.9240700000        9.4961600000        8.5796800000 O         0.0000000000         0.0000000000       -84.3859027725      111.9499673691       76.6181504523
atom         8.5114500000       11.2339000000        9.0752300000 O         0.0000000000         0.0000000000        21.3452646571     -278.1937141970     -125.7751216485
atom         7.7847800000        9.4207700000        8.0174500000 O         0.0000000000         0.0000000000       210.6040204229      186.8762922597      142.0844382570
atom         8.6029500000       10.1296600000        8.5712300000 N         0.0000000000         0.0000000000       -55.6398405338       17.9881037846       -5.8716391546
atom        10.7234500000        8.6165100000       11.1373300000 H         0.0000000000         0.0000000000       -14.8024516777      120.1151944434       -8.2647520588
atom         9.5665100000        9.9360200000       11.3985400000 H         0.0000000000         0.0000000000       114.2949950517      -16.7430526262      -39.5978245070
atom        11.3646600000       10.1501900000       11.7257200000 H         0.0000000000         0.0000000000       -88.1950780649      -42.2092670392      -74.6314909188
atom        11.8685200000        9.7522800000        9.1471800000 H         0.0000000000         0.0000000000      -112.5548634924       46.4496417913       44.6775957521
atom        10.7216900000       11.2212300000        9.3879600000 H         0.0000000000         0.0000000000        24.4594272499     -119.6775224914       15.2628780476
atom        10.8768700000       10.1304100000        9.5337400000 C         0.0000000000         0.0000000000       -27.9881606791        8.5784652482      -12.7326283419
atom        10.5939400000        9.7190900000       11.0502000000 C         0.0000000000         0.0000000000        12.9064296689      -35.1752261383      -11.7617805958
energy     -1901.9061125223
charge 0
end
begin
comment generated by PY
lattice        30.0000000000         0.0000000000         0.0000000000
lattice         0.0000000000        30.0000000000         0.0000000000
lattice         0.0000000000         0.0000000000        30.0000000000
atom        10.0044900000        9.4596600000        8.5914400000 O         0.0000000000         0.0000000000       -82.7726014842       90.0750410053       48.4490223639
atom         8.6055500000       11.2852900000        9.0741800000 O         0.0000000000         0.0000000000        19.8774529176     -276.2841031476     -117.3325650850
atom         7.7778900000        9.5292900000        8.0797200000 O         0.0000000000         0.0000000000       228.1992182280      157.8808197631      126.6241454900
atom         8.6450900000       10.1776700000        8.5920200000 N         0.0000000000         0.0000000000       -80.0753261780       45.3767208274        2.1960283733
atom        10.4383500000        8.6235500000       11.1433900000 H         0.0000000000         0.0000000000       -14.3384842370      112.9001499831      -20.6339307121
atom         9.3072300000       10.0075500000       11.1514400000 H         0.0000000000         0.0000000000       117.5969429587      -28.0309444188      -26.8054625995
atom        11.0870400000       10.1533200000       11.5874800000 H         0.0000000000         0.0000000000       -88.0721842240      -45.2606665748      -55.5800557331
atom        11.8197200000        9.4364600000        9.3662500000 H         0.0000000000         0.0000000000       -92.1756121356       59.5962617561       14.3382086590
atom        10.9583000000       11.0369000000        9.3532800000 H         0.0000000000         0.0000000000         6.2087343411     -109.3326553142       21.1034188279
atom        10.9076200000        9.9720300000        9.5364300000 C         0.0000000000         0.0000000000       -62.9112846020       11.7371306221        6.5561452163
atom        10.3435700000        9.6919300000       10.9422800000 C         0.0000000000         0.0000000000        48.4716553945      -18.6698696526        1.0842811644
energy     -1928.5234722874
charge 0
end
begin
comment generated by PY
lattice        30.0000000000         0.0000000000         0.0000000000
lattice         0.0000000000        30.0000000000         0.0000000000
lattice         0.0000000000         0.0000000000        30.0000000000
atom         9.8900300000        9.4764200000        8.5553000000 O         0.0000000000         0.0000000000       -86.2096678620       98.8722588643       60.7019630418
atom         8.8163400000       11.3017200000        9.0682200000 O         0.0000000000         0.0000000000       -40.9725521969     -254.1233721733     -133.6326265305
atom         7.7752300000        9.5943900000        8.0814500000 O         0.0000000000         0.0000000000       237.2381726698      165.9806110735      110.3869554299
atom         8.7176700000       10.2114300000        8.5441100000 N         0.0000000000         0.0000000000       -19.6228441243        1.4772180801       45.7442314407
atom        10.0054000000        8.5864500000       11.1393800000 H         0.0000000000         0.0000000000        19.9873996980      118.7271035299      -14.6380800834
atom         9.3301400000       10.2873400000       11.0835300000 H         0.0000000000         0.0000000000        96.3015783443      -70.0310233106      -12.7674336795
atom        10.9929000000        9.9925800000       11.7018200000 H         0.0000000000         0.0000000000       -90.0610474209      -38.4308427594      -75.2678977046
atom        11.7597300000        9.2018800000        9.3605300000 H         0.0000000000         0.0000000000      -104.3442645308       76.9813252045       29.6133586169
atom        11.0440000000       10.9453400000        9.4538300000 H         0.0000000000         0.0000000000       -11.3706203226     -122.8592048064       15.5724579574
atom        10.8630300000        9.8564100000        9.6100900000 C         0.0000000000         0.0000000000       -34.1491947973       26.5390979640      -23.9315329635
atom        10.2186200000        9.6576100000       10.9668200000 C         0.0000000000         0.0000000000        33.1909878136       -3.1159988904       -1.7609887899
energy     -1927.3057232978
charge 0
end
begin
comment generated by PY
lattice        30.0000000000         0.0000000000         0.0000000000
lattice         0.0000000000        30.0000000000         0.0000000000
lattice         0.0000000000         0.0000000000        30.0000000000
atom         9.9494000000        9.2988200000        8.5273500000 O         0.0000000000         0.0000000000       -58.0736214191      135.2509727921      115.6346349299
atom         8.8321700000       11.4095100000        8.9772800000 O         0.0000000000         0.0000000000       -17.2516516623     -290.8169223214     -102.3309304073
atom         7.7502200000        9.7768600000        8.0253800000 O         0.0000000000         0.0000000000       245.8072251083      122.3664477272      131.1264563937
atom         8.7049200000       10.2836400000        8.5447700000 N         0.0000000000         0.0000000000       -96.3442959743       62.3716146539      -30.9656149646
atom         9.7271700000        8.6033900000       11.0089700000 H         0.0000000000         0.0000000000        47.4139268966      105.8445879877       23.2282036526
atom         9.4545200000       10.3884100000       11.2757000000 H         0.0000000000         0.0000000000        83.6890458233      -91.4063235725      -18.4242990999
atom        10.9588200000        9.5769400000       11.8800200000 H         0.0000000000         0.0000000000       -78.4802215433        1.5573839420      -85.1879105178
atom        11.7063700000        9.0821200000        9.5418900000 H         0.0000000000         0.0000000000       -95.4004751706       71.8588324274       14.5882215191
atom        11.1146000000       10.7637400000        9.4283600000 H         0.0000000000         0.0000000000       -28.2996624043     -108.8639014392       30.2916202429
atom        10.8316400000        9.7410500000        9.6859300000 C         0.0000000000         0.0000000000        14.5725376145        7.0330544399      -35.1999358473
atom        10.2122200000        9.5886000000       11.0903100000 C         0.0000000000         0.0000000000       -17.6362994721      -15.1960946664      -42.7450808499
energy     -1897.3294893703
charge 0
end
begin
comment generated by PY
lattice        30.0000000000         0.0000000000         0.0000000000
lattice         0.0000000000        30.0000000000         0.0000000000
lattice         0.0000000000         0.0000000000        30.0000000000
atom         9.7503100000        9.3754200000        8.7320100000 O         0.0000000000         0.0000000000       -67.5020301739      130.9212738570       30.6770192240
atom         8.9662000000       11.4460400000        8.9062400000 O         0.0000000000         0.0000000000       -53.6702550480     -277.2731875022      -94.3487290650
atom         7.8038500000        9.8424200000        7.9179100000 O         0.0000000000         0.0000000000       239.6279768016      119.4269095067      148.2778113438
atom         8.7534200000       10.3091500000        8.5126200000 N         0.0000000000         0.0000000000       -33.3324212494       38.6240704522       -6.7858935623
atom         9.6319100000        8.5705500000       11.0125300000 H         0.0000000000         0.0000000000        62.1054993441       96.3606553575       20.2997852312
atom         9.6200500000       10.3324400000       11.2940900000 H         0.0000000000         0.0000000000        58.9448926323      -91.0797532055      -15.3281920860
atom        11.0299700000        9.3932700000       11.8410100000 H         0.0000000000         0.0000000000       -88.9848765733        7.7982743407      -85.8551192343
atom        11.4514600000        8.8427100000        9.4270200000 H         0.0000000000         0.0000000000       -73.7316680729       84.8840045348       33.6270117888
atom        11.3391400000       10.5545000000        9.5118700000 H         0.0000000000         0.0000000000       -73.2721452549      -91.5038665806       18.5788659333
atom        10.7597500000        9.6443200000        9.7095800000 C         0.0000000000         0.0000000000        38.8084164077      -19.5417700007      -33.2295565878
atom        10.2335600000        9.4775900000       11.0733300000 C         0.0000000000         0.0000000000        -9.0199323224        1.3988647173      -15.9256054688
energy     -1948.0996303551
charge 0
end
begin
comment generated by PY
lattice        30.0000000000         0.0000000000         0.0000000000
lattice         0.0000000000        30.0000000000         0.0000000000
lattice         0.0000000000         0.0000000000        30.0000000000
atom         9.6804100000        9.1891300000        8.8111000000 O         0.0000000000         0.0000000000       -18.4754518023      150.8288465848       38.0701088399
atom         9.0513100000       11.4994000000        8.8727800000 O         0.0000000000         0.0000000000       -65.2341788613     -287.7088716979     -103.4179287797
atom         7.8155200000       10.0280600000        7.7906600000 O         0.0000000000         0.0000000000       251.0672378608       93.7755685977      172.9063955632
atom         8.7594700000       10.3964300000        8.4573700000 N         0.0000000000         0.0000000000       -84.0037156256       65.5297601680      -24.4877961928
atom         9.7361400000        8.4582300000       11.3813000000 H         0.0000000000         0.0000000000        61.5962626670      104.7135782075      -19.2490269289
atom         9.5841500000       10.2897300000       11.3378600000 H         0.0000000000         0.0000000000        74.9389298366     -102.9761789058       -7.6583267343
atom        11.1343400000        9.5250100000       11.8385700000 H         0.0000000000         0.0000000000       -91.0030695169      -13.7166470398      -70.7577943179
atom        11.5637800000        8.9279300000        9.4332500000 H         0.0000000000         0.0000000000      -101.7488544742       60.0601582905       35.5042107376
atom        11.0704900000       10.5601900000        9.5771400000 H         0.0000000000         0.0000000000       -53.2477678531     -107.7296652220       11.3729569124
atom        10.6681700000        9.5384100000        9.7434200000 C         0.0000000000         0.0000000000        58.5029608614       13.3808866681      -25.3893274004
atom        10.2809200000        9.4059200000       11.1725400000 C         0.0000000000         0.0000000000       -32.4322437487       23.8297120457       -6.8591967852
energy     -1909.6562255025
charge 0
end
begin
comment generated by PY
lattice        30.0000000000         0.0000000000         0.0000000000
lattice         0.0000000000        30.0000000000         0.0000000000
lattice         0.0000000000         0.0000000000        30.0000000000
atom         9.4740400000        9.1926400000        8.8358300000 O         0.0000000000         0.0000000000        -5.0956502617      178.7023556329       20.1643636136
atom         9.2242100000       11.4272100000        8.8654200000 O         0.0000000000         0.0000000000      -122.1685011016     -256.5151457616     -106.6606705469
atom         7.8400900000       10.1995000000        7.6505100000 O         0.0000000000         0.0000000000       238.6922384899       37.0121973970      206.8042332639
atom         8.7604500000       10.3807000000        8.4315300000 N         0.0000000000         0.0000000000        -6.4568003090       73.3977004895      -33.8070708164
atom        10.0978300000        8.3173600000       11.5252700000 H         0.0000000000         0.0000000000        21.7680874797      112.8687318321      -23.5395332242
atom         9.4268000000        9.9277900000       11.5817200000 H         0.0000000000         0.0000000000        90.8910117881      -53.1598964208      -26.3592462017
atom        11.1719700000        9.6866400000       11.9233700000 H         0.0000000000         0.0000000000       -98.3719215467      -33.8779329597      -69.8680825172
atom        11.2590900000        8.6683200000        9.4964200000 H         0.0000000000         0.0000000000       -60.3860677969       89.5510395205       28.0698049500
atom        11.2300800000       10.4019000000        9.4909600000 H         0.0000000000         0.0000000000       -76.8599814750      -89.3976097364       25.8583960758
atom        10.6543100000        9.5211800000        9.7707000000 C         0.0000000000         0.0000000000        11.8483887660      -52.3763370044       -8.0377917504
atom        10.2974200000        9.3677900000       11.3014900000 C         0.0000000000         0.0000000000         6.1382735454       -6.2351392795      -12.6248193914
energy     -1909.7305686890
charge 0
end
begin
comment generated by PY
lattice        30.0000000000         0.0000000000         0.0000000000
lattice         0.0000000000        30.0000000000         0.0000000000
lattice         0.0000000000         0.0000000000        30.0000000000
atom         9.3049800000        9.1495500000        8.9952400000 O         0.0000000000         0.0000000000        63.6516117092      171.3900318196      -15.5664180892
atom         9.2987800000       11.5399700000        8.8570700000 O         0.0000000000         0.0000000000      -100.9050859881     -283.5472981592     -109.5630999014
atom         7.9963100000       10.2420800000        7.6263800000 O         0.0000000000         0.0000000000       218.1498879419       69.1139028473      197.2475822385
atom         8.8631300000       10.4743800000        8.4243300000 N         0.0000000000         0.0000000000       -74.8298739634       51.9610089836      -25.5339373209
atom        10.0982500000        8.3948600000       11.8096900000 H         0.0000000000         0.0000000000        15.7056691390       94.9467340795      -74.6692432989
atom         9.3675500000        9.9840700000       11.4646100000 H         0.0000000000         0.0000000000       100.5585152865      -71.0028810047      -28.4685242646
atom        11.1360300000        9.7919500000       11.6227700000 H         0.0000000000         0.0000000000       -96.4646736216      -47.2486764106      -29.8782519418
atom        11.2144500000        8.4732200000        9.3795900000 H         0.0000000000         0.0000000000       -75.0116048635       95.4991394387       35.2022198054
atom        11.0002900000       10.2984800000        9.4917100000 H         0.0000000000         0.0000000000       -56.3076231316     -110.1284996079       14.0186868784
atom        10.5377500000        9.3135300000        9.7058400000 C         0.0000000000         0.0000000000       -11.6543167872       -1.4803271734       21.2245580912
atom        10.2427800000        9.3216700000       11.2264200000 C         0.0000000000         0.0000000000        17.1329998505       30.5104713362       16.0018289760
energy     -1907.4325652288
charge 0
end
begin
comment generated by PY
lattice        30.0000000000         0.0000000000         0.0000000000
lattice         0.0000000000        30.0000000000         0.0000000000
lattice         0.0000000000         0.0000000000        30.0000000000
atom         9.2387200000        9.2390700000        9.0579200000 O         0.0000000000         0.0000000000        23.7697334126      124.4149172461      -50.7172284625
atom         9.4035000000       11.4745500000        8.8447200000 O         0.0000000000         0.0000000000      -143.8220454592     -235.3788140315      -99.3119592371
atom         8.0353300000       10.3866100000        7.5035100000 O         0.0000000000         0.0000000000       199.8739864918       16.9663469083      252.3062222896
atom         8.8268500000       10.4949400000        8.4297800000 N         0.0000000000         0.0000000000        29.2443936336       67.2671203256      -55.1894466429
atom         9.7114000000        8.4363400000       11.7232400000 H         0.0000000000         0.0000000000        53.9419965943       92.4952459965      -59.3076379087
atom         9.6035000000       10.1916600000       11.4956500000 H         0.0000000000         0.0000000000        69.3859020088      -94.0960699659      -29.6083376632
atom        11.2044100000        9.4039700000       11.7860500000 H         0.0000000000         0.0000000000      -112.5807249799       -9.1147447433      -54.6895993390
atom        10.7732100000        8.1073300000        9.5730600000 H         0.0000000000         0.0000000000       -15.9696885002      116.9078480400       10.8281106557
atom        11.2572000000        9.9039300000        9.3871700000 H         0.0000000000         0.0000000000       -82.2451291017      -83.6234483158       36.1292118628
atom        10.5316100000        9.1575300000        9.7563200000 C         0.0000000000         0.0000000000       -51.2161786787       -3.0466032045       22.1262122125
atom        10.2102400000        9.3039300000       11.2498500000 C         0.0000000000         0.0000000000        29.5997261401        7.2620922160       27.4237551990
energy     -1909.1362466318
charge 0
end
begin
comment generated by PY
lattice        30.0000000000         0.0000000000         0.0000000000
lattice         0.0000000000        30.0000000000         0.0000000000
lattice         0.0000000000         0.0000000000        30.0000000000
atom         9.1378600000        9.1403000000        8.9261200000 O         0.0000000000         0.0000000000        73.8487603249      169.0632214458       26.7833009853
atom         9.5472100000       11.4804100000        8.8618800000 O         0.0000000000         0.0000000000      -147.8626738917     -255.1585659460     -115.8780923127
atom         8.0878100000       10.4651500000        7.5551300000 O         0.0000000000         0.0000000000       212.0007001864       24.8244176431      204.1507951295
atom         8.9369200000       10.5239500000        8.3949300000 N         0.0000000000         0.0000000000       -50.8654238905       58.9318526688      -30.3990306329
atom         9.3282500000        8.8181400000       11.7257100000 H         0.0000000000         0.0000000000        93.9479876690       53.1327937648      -40.2148212447
atom        10.2139900000       10.3598600000       11.7054600000 H         0.0000000000         0.0000000000        -2.1228885867     -113.0445394105      -46.6117089781
atom        11.0567100000        8.8301100000       11.7820900000 H         0.0000000000         0.0000000000       -85.7183603896       49.7484538542      -50.8479283876
atom        10.6649400000        8.1074900000        9.6592300000 H         0.0000000000         0.0000000000       -34.0946887973      112.6168340290        4.4922303316
atom        10.9645300000        9.8787700000        9.3534700000 H         0.0000000000         0.0000000000       -66.2259840500      -85.0622225110       45.1694145062
atom        10.2999900000        9.1319200000        9.7844100000 C         0.0000000000         0.0000000000        26.5446520888      -14.4673251672       -9.2414448920
atom        10.2133100000        9.3189500000       11.3246100000 C         0.0000000000         0.0000000000       -19.3875531269       -0.5629922117       12.6619480904
energy     -1920.9817048402
charge 0
end
begin
comment generated by PY
lattice        30.0000000000         0.0000000000         0.0000000000
lattice         0.0000000000        30.0000000000         0.0000000000
lattice         0.0000000000         0.0000000000        30.0000000000
atom         9.1272200000        9.2183800000        8.9734000000 O         0.0000000000         0.0000000000        39.2525602943      118.4625070131      -23.4606243247
atom         9.6919900000       11.3573800000        8.8585800000 O         0.0000000000         0.0000000000      -182.4307859911     -191.9366342522     -117.8691137970
atom         8.0688400000       10.6325400000        7.5456800000 O         0.0000000000         0.0000000000       227.1034557342      -40.8471142434      227.5085494565
atom         8.9422400000       10.5270500000        8.3966700000 N         0.0000000000         0.0000000000        15.0406878745       68.4062421352       -7.2565848382
atom         8.9699000000        9.2315400000       11.3358700000 H         0.0000000000         0.0000000000       120.5245473309       11.4673520423        4.4491365935
atom        10.3277700000       10.3890700000       11.4448400000 H         0.0000000000         0.0000000000       -31.2717929279     -115.2959166511      -20.4635506320
atom        10.5431900000        8.7636200000       12.1031800000 H         0.0000000000         0.0000000000       -49.3651293501       54.4595873173     -103.8194535919
atom        10.5313000000        7.8771000000        9.6730500000 H         0.0000000000         0.0000000000       -24.9713465491      122.9760628310       11.6860082770
atom        11.1483800000        9.5852300000        9.3655900000 H         0.0000000000         0.0000000000       -89.0331352574      -72.3339836740       50.7273879356
atom        10.3370400000        8.9683300000        9.8296500000 C         0.0000000000         0.0000000000        13.9513355464       12.3755435680      -31.9104459457
atom        10.0755500000        9.3281300000       11.2566100000 C         0.0000000000         0.0000000000       -38.8006117947       32.2627072535       10.4320587471
energy     -1910.0368702800
charge 0
end
begin
comment generated by PY
lattice        30.0000000000         0.0000000000         0.0000000000
lattice         0.0000000000        30.0000000000         0.0000000000
lattice         0.0000000000         0.0000000000        30.0000000000
atom         9.1271300000        9.1565800000        8.8909600000 O         0.0000000000         0.0000000000        43.7558365399      146.8522426512       15.8738502191
atom         9.8791400000       11.3673500000        8.8338700000 O         0.0000000000         0.0000000000      -209.3278445902     -213.7561662247      -79.8056484039
atom         8.1262300000       10.6689500000        7.6885600000 O         0.0000000000         0.0000000000       229.8187083228      -20.4774825151      203.9445746882
atom         9.0413100000       10.5591500000        8.4759200000 N         0.0000000000         0.0000000000        -7.3236695833       52.8760090380      -73.7244828696
atom         8.8489000000        9.2724900000       11.4022300000 H         0.0000000000         0.0000000000       113.4873135281       17.9255196073      -17.8101035008
atom        10.2243700000       10.4451800000       11.2896900000 H         0.0000000000         0.0000000000       -39.8700737606     -112.5557638925      -13.3945456836
atom        10.4803000000        8.8108800000       11.8797000000 H         0.0000000000         0.0000000000       -61.2868477555       62.6477789537      -76.3664049005
atom        10.2466900000        7.8265200000        9.8070900000 H         0.0000000000         0.0000000000       -22.1488907795      110.4359346095       -6.1138143329
atom        11.0576700000        9.2491600000        9.3713700000 H         0.0000000000         0.0000000000       -97.1321514379      -33.1523436094       46.2853428061
atom        10.1169000000        8.8988500000        9.7973700000 C         0.0000000000         0.0000000000        60.0952233576      -13.0469756348      -14.6330835468
atom         9.9097500000        9.4009000000       11.1632700000 C         0.0000000000         0.0000000000       -10.0947040772        2.2771993481       15.7691925532
energy     -1944.7358181596
charge 0
end
begin
comment generated by PY
lattice        30.0000000000         0.0000000000         0.0000000000
lattice         0.0000000000        30.0000000000         0.0000000000
lattice         0.0000000000         0.0000000000        30.0000000000
atom         9.1281600000        9.1516300000        8.7874200000 O         0.0000000000         0.0000000000        44.6198682163      127.2202034621       14.3048652728
atom        10.0061700000       11.2102400000        8.8414600000 O         0.0000000000         0.0000000000      -217.4091845357     -163.9026293156     -129.2203960793
atom         8.0970000000       10.9028000000        7.7686000000 O         0.0000000000         0.0000000000       265.2794299848     -112.6053180047      146.0517801645
atom         9.1007700000       10.5358900000        8.3659900000 N         0.0000000000         0.0000000000       -17.0886572953       96.0528527772       68.1342159046
atom         8.8192700000        9.0886200000       11.5883000000 H         0.0000000000         0.0000000000       103.5196691538       44.5197481143      -38.9530735643
atom         9.7675800000       10.5708800000       11.1455300000 H         0.0000000000         0.0000000000         3.3456197873     -122.8275039841        9.4972412810
atom        10.5448500000        9.1392500000       11.9425700000 H         0.0000000000         0.0000000000       -81.2027155178       38.8353068741      -77.3677207646
atom         9.9699900000        7.6720400000        9.9314900000 H         0.0000000000         0.0000000000         5.7485560472      125.5219353247      -10.5562175929
atom        11.1238900000        8.8988000000        9.4624500000 H         0.0000000000         0.0000000000      -113.5532914235       -1.8109043383       47.2488116044