begin
comment generated by PY
lattice        25.0000000000         0.0000000000         0.0000000000
lattice         0.0000000000        25.0000000000         0.0000000000
lattice         0.0000000000         0.0000000000        25.0000000000
atom         3.5911700000        5.9812400000        7.2710000000 H         0.0000000000         0.0000000000         0.1658053402       -0.0762612323        0.4220310892
atom         3.6054600000        6.0568200000        5.4717700000 H         0.0000000000         0.0000000000        -0.1944926619        0.0626785695       -0.0757077791
atom         5.8351200000        6.6300900000        8.4442400000 H         0.0000000000         0.0000000000         0.0668525287        0.0589888818       -0.0944329441
atom         5.9867900000        3.0813900000        7.1662800000 H         0.0000000000         0.0000000000        -0.0295866831        0.0194169814        0.3904381384
atom         7.1813500000        7.1065200000        7.3435000000 H         0.0000000000         0.0000000000        -0.0481734848       -0.0010377247        0.4016225042
atom         5.0907300000        4.1233300000        8.3332800000 H         0.0000000000         0.0000000000         0.0076791625       -0.0598882432       -0.0426158927
atom         4.1997200000        5.8409500000        6.3645800000 C         0.0000000000         0.0000000000         0.2775798164       -0.0462594593       -0.3640799320
atom         6.3083100000        6.4591500000        7.4579800000 C         0.0000000000         0.0000000000        -0.2899402702        0.0099621567        0.3784697140
atom         5.6047000000        4.0881000000        7.3533800000 C         0.0000000000         0.0000000000        -0.2096895631        0.1494092906        0.3082503453
atom         6.9736000000        7.7384000000        5.2124100000 O         0.0000000000         0.0000000000        -0.1996812852       -0.0903512271       -0.0545843171
atom         5.0052300000        7.3689400000        4.2826500000 O         0.0000000000         0.0000000000         0.2321274763       -0.1520381930       -0.2760347597
atom         7.9558800000        3.4826700000        8.3870600000 O         0.0000000000         0.0000000000        -0.0499491470        0.1435519114       -0.3510046013
atom         4.0980300000        4.2993400000        4.1449300000 O         0.0000000000         0.0000000000         0.4095322721       -0.1278246176       -0.1093992398
atom         5.5235300000        2.8427100000        4.9944100000 O         0.0000000000         0.0000000000         0.0841710002        0.0021676915       -0.0230605480
atom         8.5851200000        5.6019100000        8.4788800000 O         0.0000000000         0.0000000000         0.0129600280        0.0739782380       -0.2969276162
atom         5.3236200000        6.7687500000        6.4468100000 N         0.0000000000         0.0000000000         0.0101927622       -0.1199609708       -0.2599615577
atom         4.6351900000        4.4478500000        6.3439300000 N         0.0000000000         0.0000000000         0.1054558861        0.0843324241       -0.2740515526
atom         6.7241200000        5.0492100000        7.3298900000 N         0.0000000000         0.0000000000        -0.4342301191        0.1620695314       -0.1771511298
atom         5.8176700000        7.3119700000        5.2056200000 N         0.0000000000         0.0000000000        -0.1349733875       -0.3004097590        0.3507970564
atom         4.7863900000        3.8280900000        5.0503400000 N         0.0000000000         0.0000000000        -0.2247481009        0.6086601042        0.2227418332
atom         7.8287500000        4.6865800000        8.1329900000 N         0.0000000000         0.0000000000         0.4431314906       -0.4011382327       -0.0753618709
energy     -2991.5512659360
charge 0
end
begin
comment generated by PY
lattice        25.0000000000         0.0000000000         0.0000000000
lattice         0.0000000000        25.0000000000         0.0000000000
lattice         0.0000000000         0.0000000000        25.0000000000
atom         3.5927900000        5.9807000000        7.2718700000 H         0.0000000000         0.0000000000         0.2321044157       -0.1076005170        0.4670452789
atom         3.6055300000        6.0567500000        5.4725500000 H         0.0000000000         0.0000000000        -0.1328518171        0.0416934708       -0.1094914820
atom         5.8459700000        6.6401700000        8.4400300000 H         0.0000000000         0.0000000000        -2.6805119798        2.2794890499        2.6695582195
atom         5.9956800000        3.0876000000        7.1581800000 H         0.0000000000         0.0000000000         0.8433473013       -2.6984069651        0.1492709273
atom         7.1856300000        7.0970800000        7.3346700000 H         0.0000000000         0.0000000000         2.1613498624        1.8217602324        0.3198498009
atom         5.0943900000        4.1093400000        8.3280400000 H         0.0000000000         0.0000000000        -3.5133897924       -0.6329889824        2.5837499204
atom         4.2005200000        5.8406800000        6.3648400000 C         0.0000000000         0.0000000000         0.7320340361       -0.0785442265       -0.0503642369
atom         6.3105400000        6.4582400000        7.4567200000 C         0.0000000000         0.0000000000         2.0930214587       -4.6751110196        5.4489538292
atom         5.6070600000        4.0877100000        7.3521700000 C         0.0000000000         0.0000000000         4.8604717045        1.5933916254        6.5523779911
atom         6.9717800000        7.7418900000        5.2130400000 O         0.0000000000         0.0000000000        -0.2957976494        0.1164557675       -0.2868501567
atom         5.0034800000        7.3709400000        4.2835400000 O         0.0000000000         0.0000000000         0.0343602165       -0.0611565733       -0.4785294318
atom         8.0317100000        3.4674800000        8.4654400000 O         0.0000000000         0.0000000000        -7.1301830820       11.4480400918       -7.2756490189
atom         4.0954700000        4.2985000000        4.1456800000 O         0.0000000000         0.0000000000         0.2008343126       -0.1001288995       -0.2294063316
atom         5.5201000000        2.8406900000        4.9948100000 O         0.0000000000         0.0000000000        -0.1402773136       -0.0408171700       -0.2563179912
atom         8.6611400000        5.5869800000        8.5567600000 O         0.0000000000         0.0000000000       -13.7236780302       -4.7165047033       -9.1939637658
atom         5.3245400000        6.7681400000        6.4462100000 N         0.0000000000         0.0000000000         0.4738942616        0.0289640483       -1.1680628779
atom         4.6362900000        4.4478700000        6.3433700000 N         0.0000000000         0.0000000000         0.7839894508       -0.0471588207       -0.9883059062
atom         6.7180500000        5.0504700000        7.3417100000 N         0.0000000000         0.0000000000        30.1525428266       -6.0583057499        7.5459186416
atom         5.8163300000        7.3137500000        5.2062300000 N         0.0000000000         0.0000000000         0.2359555273       -0.5986287658        0.4625023509
atom         4.7842800000        3.8272500000        5.0508300000 N         0.0000000000         0.0000000000         0.3563777090        0.5334596572        0.1505853785
atom         7.9064600000        4.6709400000        8.2105200000 N         0.0000000000         0.0000000000       -15.5435934188        1.9520753892       -6.3129172605
energy     -2988.7767766885
charge 0
end
begin
comment generated by PY
lattice        25.0000000000         0.0000000000         0.0000000000
lattice         0.0000000000        25.0000000000         0.0000000000
lattice         0.0000000000         0.0000000000        25.0000000000
atom         3.5944200000        5.9801700000        7.2727400000 H         0.0000000000         0.0000000000         0.3115480036       -0.1440592434        0.5189084514
atom         3.6055900000        6.0566800000        5.4733300000 H         0.0000000000         0.0000000000        -0.0854162698        0.0259892376       -0.1536754920
atom         5.8568300000        6.6502600000        8.4358100000 H         0.0000000000         0.0000000000        -5.2608719996        4.3907744626        5.4375619185
atom         6.0045700000        3.0938100000        7.1500900000 H         0.0000000000         0.0000000000         1.4373870181       -5.1663468133       -0.2828837425
atom         7.1899000000        7.0876300000        7.3258500000 H         0.0000000000         0.0000000000         4.0421220372        3.5750536978        0.0584354287
atom         5.0980500000        4.0953500000        8.3228000000 H         0.0000000000         0.0000000000        -6.8603516098       -1.2189805679        5.2147970247
atom         4.2013200000        5.8404200000        6.3651100000 C         0.0000000000         0.0000000000         1.1318578175       -0.1070470639        0.1548054588
atom         6.3127800000        6.4573300000        7.4554700000 C         0.0000000000         0.0000000000         3.8091643812       -8.3261953441        9.7621295478
atom         5.6094300000        4.0873200000        7.3509600000 C         0.0000000000         0.0000000000         8.4340725877        2.7216981186       11.7442989521
atom         6.9699500000        7.7453900000        5.2136700000 O         0.0000000000         0.0000000000        -0.4259052612        0.3023007239       -0.5393170364
atom         5.0017400000        7.3729400000        4.2844200000 O         0.0000000000         0.0000000000        -0.1962683241        0.0266118724       -0.6781184748
atom         8.1075400000        3.4522900000        8.5438200000 O         0.0000000000         0.0000000000       -12.0115937641       20.1365627663      -12.5444538471
atom         4.0929200000        4.2976600000        4.1464300000 O         0.0000000000         0.0000000000        -0.0409785938       -0.0451064319       -0.3605516682
atom         5.5166600000        2.8386800000        4.9952100000 O         0.0000000000         0.0000000000        -0.3820210384       -0.0542845300       -0.5040343979
atom         8.7371500000        5.5720400000        8.6346400000 O         0.0000000000         0.0000000000       -23.4592418267       -8.5161681387      -15.7676727638
atom         5.3254600000        6.7675300000        6.4456200000 N         0.0000000000         0.0000000000         0.6328736796        0.1498935621       -2.0395440478
atom         4.6373900000        4.4478900000        6.3428100000 N         0.0000000000         0.0000000000         1.1364238060       -0.0202702217       -1.6989397537
atom         6.7119800000        5.0517400000        7.3535400000 N         0.0000000000         0.0000000000        41.4558087980       -7.0419303648        3.0664533114
atom         5.8150000000        7.3155200000        5.2068400000 N         0.0000000000         0.0000000000         0.6750744825       -0.8513031904        0.5253192837
atom         4.7821800000        3.8264200000        5.0513200000 N         0.0000000000         0.0000000000         0.9599875532        0.3956498222        0.0564983426
atom         7.9841700000        4.6553000000        8.2880500000 N         0.0000000000         0.0000000000       -15.3036945378       -0.2327962322       -1.9700164956
energy     -2982.8144078917
charge 0
end
begin
comment generated by PY
lattice        25.0000000000         0.0000000000         0.0000000000
lattice         0.0000000000        25.0000000000         0.0000000000
lattice         0.0000000000         0.0000000000        25.0000000000
atom         3.5960400000        5.9796300000        7.2736100000 H         0.0000000000         0.0000000000         0.3999852053       -0.1830315696        0.5844695894
atom         3.6056600000        6.0566100000        5.4741100000 H         0.0000000000         0.0000000000        -0.0493726333        0.0153352644       -0.2058845727
atom         5.8676800000        6.6603400000        8.4316000000 H         0.0000000000         0.0000000000        -7.6653722803        6.4036143958        8.2008382051
atom         6.0134600000        3.1000200000        7.1420000000 H         0.0000000000         0.0000000000         1.7942028775       -7.3897987316       -0.8894222763
atom         7.1941700000        7.0781900000        7.3170300000 H         0.0000000000         0.0000000000         5.6072875519        5.2587965503       -0.3703293405
atom         5.1017000000        4.0813600000        8.3175600000 H         0.0000000000         0.0000000000       -10.0230135274       -1.8248272853        7.8486344554
atom         4.2021100000        5.8401500000        6.3653700000 C         0.0000000000         0.0000000000         1.4771664635       -0.1310992154        0.2631439134
atom         6.3150100000        6.4564200000        7.4542200000 C         0.0000000000         0.0000000000         4.9704013369      -11.0394994232       13.4251361756
atom         5.6117900000        4.0869400000        7.3497500000 C         0.0000000000         0.0000000000        10.8343066670        3.6135417524       16.0293638626
atom         6.9681300000        7.7488900000        5.2143000000 O         0.0000000000         0.0000000000        -0.6089829519        0.4606344465       -0.7972953870
atom         4.9999900000        7.3749400000        4.2853000000 O         0.0000000000         0.0000000000        -0.4551460361        0.1114516285       -0.8544163644
atom         8.1833800000        3.4371000000        8.6222000000 O         0.0000000000         0.0000000000       -14.9821151958       26.1805940370      -16.2632900617
atom         4.0903600000        4.2968300000        4.1471800000 O         0.0000000000         0.0000000000        -0.3102104919        0.0333916735       -0.4840870239
atom         5.5132300000        2.8366600000        4.9956000000 O         0.0000000000         0.0000000000        -0.6530516592       -0.0246747864       -0.7537109512
atom         8.8131600000        5.5571100000        8.7125200000 O         0.0000000000         0.0000000000       -29.7033925330      -11.2637863132      -20.2840810920
atom         5.3263900000        6.7669200000        6.4450200000 N         0.0000000000         0.0000000000         0.5207532952        0.2014800080       -2.8434808726
atom         4.6384900000        4.4479100000        6.3422500000 N         0.0000000000         0.0000000000         1.2133768548        0.1667508227       -2.3762280488
atom         6.7059100000        5.0530000000        7.3653600000 N         0.0000000000         0.0000000000        44.7078533998       -6.3576316631       -6.0602428359
atom         5.8136600000        7.3173000000        5.2074400000 N         0.0000000000         0.0000000000         1.2219553786       -1.0397309282        0.5021203724
atom         4.7800800000        3.8255800000        5.0518100000 N         0.0000000000         0.0000000000         1.6068128644        0.1665663383       -0.0952861844
atom         8.0618800000        4.6396600000        8.3655800000 N         0.0000000000         0.0000000000        -9.9034676465       -3.3581231226        5.4240253768
energy     -2975.7455395783
charge 0
end
begin
comment generated by PY
lattice        25.0000000000         0.0000000000         0.0000000000
lattice         0.0000000000        25.0000000000         0.0000000000
lattice         0.0000000000         0.0000000000        25.0000000000
atom         3.5976700000        5.9790900000        7.2744700000 H         0.0000000000         0.0000000000         0.4912357938       -0.2201129308        0.6653198707
atom         3.6057300000        6.0565400000        5.4748900000 H         0.0000000000         0.0000000000        -0.0208697960        0.0100082778       -0.2637434876
atom         5.8785400000        6.6704300000        8.4273900000 H         0.0000000000         0.0000000000        -9.8865873254        8.3272100083       10.9417457602
atom         6.0223500000        3.1062300000        7.1339000000 H         0.0000000000         0.0000000000         2.0346552117       -9.3673329658       -1.6002406082
atom         7.1984500000        7.0687400000        7.3082100000 H         0.0000000000         0.0000000000         6.9324850039        6.8240312466       -0.9145121525
atom         5.1053600000        4.0673600000        8.3123200000 H         0.0000000000         0.0000000000       -12.9917131758       -2.4553718496       10.4658452309
atom         4.2029100000        5.8398900000        6.3656400000 C         0.0000000000         0.0000000000         1.7676832473       -0.1517384059        0.2803240216
atom         6.3172500000        6.4555100000        7.4529600000 C         0.0000000000         0.0000000000         5.6353061177      -12.8858652604       16.5413772102
atom         5.6141500000        4.0865500000        7.3485400000 C         0.0000000000         0.0000000000        12.2577189931        4.3012072941       19.5552755326
atom         6.9663100000        7.7523900000        5.2149400000 O         0.0000000000         0.0000000000        -0.8550159386        0.5891739412       -1.0519068976
atom         4.9982500000        7.3769400000        4.2861800000 O         0.0000000000         0.0000000000        -0.7408892865        0.1935010584       -0.9901738105
atom         8.2592100000        3.4219100000        8.7005800000 O         0.0000000000         0.0000000000       -16.5588340450       29.9954313130      -18.7652903393
atom         4.0878100000        4.2959900000        4.1479200000 O         0.0000000000         0.0000000000        -0.6032178149        0.1350425692       -0.5835010463
atom         5.5097900000        2.8346400000        4.9960000000 O         0.0000000000         0.0000000000        -0.9583271937        0.0552300125       -0.9996286352
atom         8.8891800000        5.5421700000        8.7903900000 O         0.0000000000         0.0000000000       -33.3467285134      -13.0947015832      -23.2579463031
atom         5.3273100000        6.7663100000        6.4444300000 N         0.0000000000         0.0000000000         0.2293602105        0.1252879573       -3.5285636330
atom         4.6395900000        4.4479300000        6.3416900000 N         0.0000000000         0.0000000000         1.1498219844        0.5095228083       -2.9566159212
atom         6.6998300000        5.0542600000        7.3771800000 N         0.0000000000         0.0000000000        45.7496828379       -5.6541927065      -16.0023830215
atom         5.8123200000        7.3190700000        5.2080500000 N         0.0000000000         0.0000000000         1.8887741849       -1.1538114592        0.3701909772
atom         4.7779800000        3.8247400000        5.0523000000 N         0.0000000000         0.0000000000         2.3002666037       -0.1587026914       -0.3228246116
atom         8.1395900000        4.6240200000        8.4431200000 N         0.0000000000         0.0000000000        -4.4747609785       -5.9237935733       12.4172518642
energy     -2968.4566528824
charge 0
end
begin
comment generated by PY
lattice        25.0000000000         0.0000000000         0.0000000000
lattice         0.0000000000        25.0000000000         0.0000000000
lattice         0.0000000000         0.0000000000        25.0000000000
atom         3.5992900000        5.9785600000        7.2753400000 H         0.0000000000         0.0000000000         0.5781740598       -0.2535276648        0.7628198677
atom         3.6057900000        6.0564700000        5.4756700000 H         0.0000000000         0.0000000000         0.0052347444        0.0069181644       -0.3212103733
atom         5.8894000000        6.6805100000        8.4231700000 H         0.0000000000         0.0000000000       -11.9110267143       10.1601546064       13.6472092530
atom         6.0312400000        3.1124400000        7.1258100000 H         0.0000000000         0.0000000000         2.2622166994      -11.1033540807       -2.3442891898
atom         7.2027200000        7.0593000000        7.2993900000 H         0.0000000000         0.0000000000         8.1017700909        8.2172111942       -1.5168536666
atom         5.1090200000        4.0533700000        8.3070900000 H         0.0000000000         0.0000000000       -15.7533982846       -3.1142808879       13.0531464757
atom         4.2037100000        5.8396200000        6.3659000000 C         0.0000000000         0.0000000000         2.0057372844       -0.1742224402        0.2130102820
atom         6.3194800000        6.4546000000        7.4517100000 C         0.0000000000         0.0000000000         5.8507377572      -13.9514240024       19.1675124178
atom         5.6165200000        4.0861600000        7.3473300000 C         0.0000000000         0.0000000000        12.8247317476        4.8014136410       22.4104942242
atom         6.9644900000        7.7558900000        5.2155700000 O         0.0000000000         0.0000000000        -1.1546646995        0.6902713836       -1.2990006695
atom         4.9965000000        7.3789300000        4.2870700000 O         0.0000000000         0.0000000000        -1.0457036102        0.2692549586       -1.0764202601
atom         8.3350500000        3.4067200000        8.7789600000 O         0.0000000000         0.0000000000       -17.2918135636       32.2552727760      -20.4824709865
atom         4.0852500000        4.2951500000        4.1486700000 O         0.0000000000         0.0000000000        -0.9111222520        0.2553033270       -0.6512068153
atom         5.5063600000        2.8326200000        4.9964000000 O         0.0000000000         0.0000000000        -1.2897764503        0.1759058602       -1.2394583346
atom         8.9651900000        5.5272400000        8.8682700000 O         0.0000000000         0.0000000000       -35.2424208627      -14.2581523515      -25.1866152360
atom         5.3282300000        6.7657000000        6.4438300000 N         0.0000000000         0.0000000000        -0.1479103549       -0.1129966853       -4.0517613463
atom         4.6406900000        4.4479500000        6.3411300000 N         0.0000000000         0.0000000000         1.0592862729        0.9853310955       -3.3904770715
atom         6.6937600000        5.0555200000        7.3890000000 N         0.0000000000         0.0000000000        46.7776528866       -5.4611297986      -25.4077428309
atom         5.8109800000        7.3208500000        5.2086600000 N         0.0000000000         0.0000000000         2.6639083853       -1.2072888701        0.1487405347
atom         4.7758700000        3.8239000000        5.0527900000 N         0.0000000000         0.0000000000         3.0357366614       -0.5627926742       -0.6013499105
atom         8.2173000000        4.6083900000        8.5206500000 N         0.0000000000         0.0000000000        -0.4173497979       -7.6178675514       18.1659697571
energy     -2961.2375819956
charge 0
end
begin
comment generated by PY
lattice        25.0000000000         0.0000000000         0.0000000000
lattice         0.0000000000        25.0000000000         0.0000000000
lattice         0.0000000000         0.0000000000        25.0000000000
atom         3.6009200000        5.9780200000        7.2762100000 H         0.0000000000         0.0000000000         0.6486701550       -0.2827223186        0.8789066664
atom         3.6058600000        6.0564000000        5.4764500000 H         0.0000000000         0.0000000000         0.0319849801        0.0011530274       -0.3668471978
atom         5.9002500000        6.6906000000        8.4189600000 H         0.0000000000         0.0000000000       -13.7213027938       11.8765281344       16.3306038013
atom         6.0401300000        3.1186500000        7.1177200000 H         0.0000000000         0.0000000000         2.5330397753      -12.6096460163       -3.0784678569
atom         7.2069900000        7.0498500000        7.2905700000 H         0.0000000000         0.0000000000         9.1722637902        9.4068587451       -2.1334465993
atom         5.1126700000        4.0393800000        8.3018500000 H         0.0000000000         0.0000000000       -18.2807421045       -3.7974035017       15.6263577256
atom         4.2045000000        5.8393600000        6.3661700000 C         0.0000000000         0.0000000000         2.1946723543       -0.2051466351        0.0719258492
atom         6.3217100000        6.4536900000        7.4504500000 C         0.0000000000         0.0000000000         5.5747952397      -14.3038122365       21.2174567728
atom         5.6188800000        4.0857700000        7.3461200000 C         0.0000000000         0.0000000000        12.5355294150        5.1573301391       24.5356851473
atom         6.9626600000        7.7593900000        5.2162000000 O         0.0000000000         0.0000000000        -1.4820783602        0.7751342003       -1.5371238883
atom         4.9947500000        7.3809300000        4.2879500000 O         0.0000000000         0.0000000000        -1.3576667037        0.3316798621       -1.1121410490
atom         8.4108800000        3.3915300000        8.8573400000 O         0.0000000000         0.0000000000       -17.4590025366       33.4326521153      -21.6598272653
atom         4.0827000000        4.2943200000        4.1494200000 O         0.0000000000         0.0000000000        -1.2203642008        0.3868637535       -0.6858898795
atom         5.5029200000        2.8306100000        4.9968000000 O         0.0000000000         0.0000000000        -1.6304038050        0.3100490680       -1.4737996235
atom         9.0412000000        5.5123100000        8.9461500000 O         0.0000000000         0.0000000000       -35.7837902879      -14.9387844261      -26.3012007031
atom         5.3291500000        6.7650900000        6.4432400000 N         0.0000000000         0.0000000000        -0.6257940914       -0.4707810877       -4.4338976874
atom         4.6417900000        4.4479700000        6.3405700000 N         0.0000000000         0.0000000000         0.8929966612        1.5692011106       -3.7106727806
atom         6.6876900000        5.0567800000        7.4008300000 N         0.0000000000         0.0000000000        47.8803621714       -5.7385481912      -34.3787572186
atom         5.8096400000        7.3226300000        5.2092700000 N         0.0000000000         0.0000000000         3.5102996789       -1.2355149808       -0.1002672628
atom         4.7737700000        3.8230700000        5.0532700000 N         0.0000000000         0.0000000000         3.7980491970       -1.0069618895       -0.8668229392
atom         8.2950100000        4.5927500000        8.5981800000 N         0.0000000000         0.0000000000         2.7884814656       -8.6581058117       23.1782721097
energy     -2954.2048627055
charge 0
end
begin
comment generated by PY
lattice        25.0000000000         0.0000000000         0.0000000000
lattice         0.0000000000        25.0000000000         0.0000000000
lattice         0.0000000000         0.0000000000        25.0000000000
atom         3.6025400000        5.9774900000        7.2770800000 H         0.0000000000         0.0000000000         0.6628523921       -0.2941603504        0.9971842171
atom         3.6059300000        6.0563300000        5.4772300000 H         0.0000000000         0.0000000000         0.0483349086       -0.0044968069       -0.3815828880
atom         5.9111100000        6.7006800000        8.4147500000 H         0.0000000000         0.0000000000       -15.1303714589       13.2176373646       19.1217141694
atom         6.0490200000        3.1248600000        7.1096200000 H         0.0000000000         0.0000000000         2.8933608380      -13.9597949813       -3.7551104566
atom         7.2112700000        7.0404000000        7.2817500000 H         0.0000000000         0.0000000000        10.2341328445       10.4192629239       -2.7007822015
atom         5.1163300000        4.0253900000        8.2966100000 H         0.0000000000         0.0000000000       -20.2782237128       -4.3972083555       18.3316136734
atom         4.2053000000        5.8390900000        6.3664400000 C         0.0000000000         0.0000000000         2.3595322120       -0.2582781377       -0.1164788280
atom         6.3239500000        6.4527900000        7.4492000000 C         0.0000000000         0.0000000000         4.6837587251      -14.5674634820       21.1970481878
atom         5.6212400000        4.0853800000        7.3449100000 C         0.0000000000         0.0000000000        11.6997229128        6.0633790705       24.5010251436
atom         6.9608400000        7.7628800000        5.2168400000 O         0.0000000000         0.0000000000        -1.6898538978        0.8740639513       -1.7490964456
atom         4.9930100000        7.3829300000        4.2888300000 O         0.0000000000         0.0000000000        -1.6183431384        0.3525957791       -1.1549414261
atom         8.4867200000        3.3763400000        8.9357200000 O         0.0000000000         0.0000000000       -16.9384567864       33.3964470549      -21.9219334540
atom         4.0801500000        4.2934800000        4.1501700000 O         0.0000000000         0.0000000000        -1.4656361895        0.5272794303       -0.7476921482
atom         5.4994900000        2.8285900000        4.9971900000 O         0.0000000000         0.0000000000        -1.8712020473        0.3500591188       -1.6909146830
atom         9.1172100000        5.4973700000        9.0240300000 O         0.0000000000         0.0000000000       -34.7827780198      -15.1034136783      -26.1887805316