begin
comment generated by PY
lattice        25.0000000000         0.0000000000         0.0000000000
lattice         0.0000000000        25.0000000000         0.0000000000
lattice         0.0000000000         0.0000000000        25.0000000000
atom         6.9736000000        7.7384000000        5.2124100000 O         0.0000000000         0.0000000000      -284.2846812852     -106.7893512271        3.6307856829
atom         5.0052300000        7.3689400000        4.2826500000 O         0.0000000000         0.0000000000       197.4081274763      -17.7735381930      230.9649652403
atom         7.9558800000        3.4826700000        8.3870600000 O         0.0000000000         0.0000000000       -35.0747491470      291.8665519114      -65.2149046013
atom         4.0980300000        4.2993400000        4.1449300000 O         0.0000000000         0.0000000000       169.2305322721     -111.8398246176      227.0116007602
atom         5.5235300000        2.8427100000        4.9944100000 O         0.0000000000         0.0000000000      -180.3198289998      243.5001676915       19.2161394520
atom         8.5851200000        5.6019100000        8.4788800000 O         0.0000000000         0.0000000000      -186.8610399720     -219.3180217620      -87.3591276162
atom         5.3236200000        6.7687500000        6.4468100000 N         0.0000000000         0.0000000000        31.4418927622     -134.8569609708       29.2168384423
atom         4.6351900000        4.4478500000        6.3439300000 N         0.0000000000         0.0000000000        99.2074558861       93.2815324241       39.3139484474
atom         6.7241200000        5.0492100000        7.3298900000 N         0.0000000000         0.0000000000      -105.3572301191       27.1993695314       94.4409488702
atom         5.8176700000        7.3119700000        5.2056200000 N         0.0000000000         0.0000000000        33.9918266125       55.6163902410      -95.9618029436
atom         4.7863900000        3.8280900000        5.0503400000 N         0.0000000000         0.0000000000         0.7002668991      -56.8071398958     -101.1612581668
atom         7.8287500000        4.6865800000        8.1329900000 N         0.0000000000         0.0000000000        81.8830314906      -27.0764382327       60.8677381291
atom         4.1997200000        5.8409500000        6.3645800000 C         0.0000000000         0.0000000000        99.6340798164      -29.5225594593       -0.1102559320
atom         6.3083100000        6.4591500000        7.4579800000 C         0.0000000000         0.0000000000       -39.4330402702      -60.4209378433      -77.9421302860
atom         5.6047000000        4.0881000000        7.3533800000 C         0.0000000000         0.0000000000         1.7540204369       78.2705092906      -71.8642496547
atom         3.5911700000        5.9812400000        7.2710000000 H         0.0000000000         0.0000000000        77.7912053402      -18.3951612323     -105.6639689108
atom         3.6054600000        6.0568200000        5.4717700000 H         0.0000000000         0.0000000000        80.1917073381      -28.4758214305      105.7932922209
atom         5.8351200000        6.6300900000        8.4442400000 H         0.0000000000         0.0000000000        52.6231525287      -24.0902111182     -117.1114329441
atom         5.9867900000        3.0813900000        7.1662800000 H         0.0000000000         0.0000000000       -46.1042866831      127.4464169814       18.5521381384
atom         7.1813500000        7.1065200000        7.3435000000 H         0.0000000000         0.0000000000      -108.5221734848      -82.7563377247        9.3336125042
atom         5.0907300000        4.1233300000        8.3332800000 H         0.0000000000         0.0000000000        60.0998791625        0.9409817568     -115.9526158927
energy     -4431.3732659360
charge 0
end
begin
comment generated by PY
lattice        25.0000000000         0.0000000000         0.0000000000
lattice         0.0000000000        25.0000000000         0.0000000000
lattice         0.0000000000         0.0000000000        25.0000000000
atom         6.9717800000        7.7418900000        5.2130400000 O         0.0000000000         0.0000000000      -284.1527976494     -106.9815442325        3.4364198433
atom         5.0034800000        7.3709400000        4.2835400000 O         0.0000000000         0.0000000000       197.2793602165      -17.7304565733      230.6524705682
atom         8.0317100000        3.4674800000        8.4654400000 O         0.0000000000         0.0000000000       -38.8451830820      300.5050400918      -70.2572490189
atom         4.0954700000        4.2985000000        4.1456800000 O         0.0000000000         0.0000000000       169.1088343126     -111.8001288995      226.7945936684
atom         5.5201000000        2.8406900000        4.9948100000 O         0.0000000000         0.0000000000      -180.1302773136      243.6531828300       19.0430820088
atom         8.6611400000        5.5869800000        8.5567600000 O         0.0000000000         0.0000000000      -196.1356780302     -223.8475047033      -93.9178637658
atom         5.3245400000        6.7681400000        6.4462100000 N         0.0000000000         0.0000000000        31.7697942616     -134.3110359517       27.9587371221
atom         4.6362900000        4.4478700000        6.3433700000 N         0.0000000000         0.0000000000        99.5623894508       92.9242411793       38.2220940938
atom         6.7180500000        5.0504700000        7.3417100000 N         0.0000000000         0.0000000000      -101.6154571734       30.3845942501       81.0424186416
atom         5.8163300000        7.3137500000        5.2062300000 N         0.0000000000         0.0000000000        34.1959555273       55.3546712342      -95.5326976491
atom         4.7842800000        3.8272500000        5.0508300000 N         0.0000000000         0.0000000000         1.1044777090      -56.8398403428     -100.9214146215
atom         7.9064600000        4.6709400000        8.2105200000 N         0.0000000000         0.0000000000        90.9164065812      -33.2612246108       70.7174827395
atom         4.2005200000        5.8406800000        6.3648400000 C         0.0000000000         0.0000000000       100.2832340361      -29.6097442265        0.1053577631
atom         6.3105400000        6.4582400000        7.4567200000 C         0.0000000000         0.0000000000       -38.2683785413      -64.3197110196      -71.4050461708
atom         5.6070600000        4.0877100000        7.3521700000 C         0.0000000000         0.0000000000         5.0494787045       79.6080916254      -64.3080220089
atom         3.5927900000        5.9807000000        7.2718700000 H         0.0000000000         0.0000000000        77.7529044157      -18.3918005170     -105.7059547211
atom         3.6055300000        6.0567500000        5.4725500000 H         0.0000000000         0.0000000000        80.3458481829      -28.5217065292      105.6965085180
atom         5.8459700000        6.6401700000        8.4400300000 H         0.0000000000         0.0000000000        49.7607880202      -23.2878109501     -116.0044417805
atom         5.9956800000        3.0876000000        7.1581800000 H         0.0000000000         0.0000000000       -47.2051526987      124.8945930349       19.0981709273
atom         7.1856300000        7.0970800000        7.3346700000 H         0.0000000000         0.0000000000      -108.0226501376      -80.1705397676       10.1368498009
atom         5.0943900000        4.1093400000        8.3280400000 H         0.0000000000         0.0000000000        57.2462102076        1.7503910176     -114.8522500796
energy     -4416.6957766885
charge 0
end
begin
comment generated by PY
lattice        25.0000000000         0.0000000000         0.0000000000
lattice         0.0000000000        25.0000000000         0.0000000000
lattice         0.0000000000         0.0000000000        25.0000000000
atom         6.9699500000        7.7453900000        5.2136700000 O         0.0000000000         0.0000000000      -284.0569052612     -107.2046992761        3.2223929636
atom         5.0017400000        7.3729400000        4.2844200000 O         0.0000000000         0.0000000000       197.1127316759      -17.6919881276      230.3398815252
atom         8.1075400000        3.4522900000        8.5438200000 O         0.0000000000         0.0000000000       -41.0443937641      307.2055627663      -74.0514538471
atom         4.0929200000        4.2976600000        4.1464300000 O         0.0000000000         0.0000000000       168.9560214062     -111.7341064319      226.5694483318
atom         5.5166600000        2.8386800000        4.9952100000 O         0.0000000000         0.0000000000      -179.9570210384      243.8437154700       18.8573656021
atom         8.7371500000        5.5720400000        8.6346400000 O         0.0000000000         0.0000000000      -202.4482418267     -227.5891681387      -98.6995727638
atom         5.3254600000        6.7675300000        6.4456200000 N         0.0000000000         0.0000000000        31.7970736796     -133.8051064379       26.7421559522
atom         4.6373900000        4.4478900000        6.3428100000 N         0.0000000000         0.0000000000        99.6063238060       92.7242297783       37.1377602463
atom         6.7119800000        5.0517400000        7.3535400000 N         0.0000000000         0.0000000000      -111.2631912020       36.6105696352       59.2583533114
atom         5.8150000000        7.3155200000        5.2068400000 N         0.0000000000         0.0000000000        34.4799744825       55.1489968096      -95.1529807163
atom         4.7821800000        3.8264200000        5.0513200000 N         0.0000000000         0.0000000000         1.5320135532      -56.9442501778     -100.7085016574
atom         7.9841700000        4.6553000000        8.2880500000 N         0.0000000000         0.0000000000       110.5623054622      -41.9090962322       87.8415835044
atom         4.2013200000        5.8404200000        6.3651100000 C         0.0000000000         0.0000000000       100.8772578175      -29.6883470639        0.2208191588
atom         6.3127800000        6.4573300000        7.4554700000 C         0.0000000000         0.0000000000       -37.3409356188      -67.6700953441      -65.5195704522
atom         5.6094300000        4.0873200000        7.3509600000 C         0.0000000000         0.0000000000         7.6112455877       80.7935981186      -57.6273010479
atom         3.5944200000        5.9801700000        7.2727400000 H         0.0000000000         0.0000000000        77.7321480036      -18.3948592434     -105.7450915486
atom         3.6055900000        6.0566800000        5.4733300000 H         0.0000000000         0.0000000000        80.4833837302      -28.5603107624      105.5853245080
atom         5.8568300000        6.6502600000        8.4358100000 H         0.0000000000         0.0000000000        47.0329280004      -22.6612255374     -114.8714380815
atom         6.0045700000        3.0938100000        7.1500900000 H         0.0000000000         0.0000000000       -48.4658129819      122.6146531867       19.5152162575
atom         7.1899000000        7.0876300000        7.3258500000 H         0.0000000000         0.0000000000      -107.7928779628      -77.7040463022       10.8009354287
atom         5.0980500000        4.0953500000        8.3228000000 H         0.0000000000         0.0000000000        54.5846483902        2.6159894321     -113.7152029753
energy     -4402.4928078917
charge 0
end
begin
comment generated by PY
lattice        25.0000000000         0.0000000000         0.0000000000
lattice         0.0000000000        25.0000000000         0.0000000000
lattice         0.0000000000         0.0000000000        25.0000000000
atom         6.9681300000        7.7488900000        5.2143000000 O         0.0000000000         0.0000000000      -284.0009829519     -107.4483655535        3.0013446130
atom         4.9999900000        7.3749400000        4.2853000000 O         0.0000000000         0.0000000000       196.9218539639      -17.6549483715      230.0515836356
atom         8.1833800000        3.4371000000        8.6222000000 O         0.0000000000         0.0000000000       -41.8472151958      311.7975940370      -76.6441900617
atom         4.0903600000        4.2968300000        4.1471800000 O         0.0000000000         0.0000000000       168.7707895081     -111.6426083265      226.3409129761
atom         5.5132300000        2.8366600000        4.9956000000 O         0.0000000000         0.0000000000      -179.8070516592      244.0703252136       18.6715890488
atom         8.8131600000        5.5571100000        8.7125200000 O         0.0000000000         0.0000000000      -206.0693925330     -230.4117863132     -101.8620810920
atom         5.3263900000        6.7669200000        6.4450200000 N         0.0000000000         0.0000000000        31.5646532952     -133.3675199920       25.6001191274
atom         4.6384900000        4.4479100000        6.3422500000 N         0.0000000000         0.0000000000        99.3826768548       92.6902508227       36.0961719512
atom         6.7059100000        5.0530000000        7.3653600000 N         0.0000000000         0.0000000000      -124.3421466002       42.8326683369       35.8218571641
atom         5.8136600000        7.3173000000        5.2074400000 N         0.0000000000         0.0000000000        34.8584553786       54.9960690718      -94.8630796276
atom         4.7800800000        3.8255800000        5.0518100000 N         0.0000000000         0.0000000000         2.0071088644      -57.1336336617     -100.5492861844
atom         8.0618800000        4.6396600000        8.3655800000 N         0.0000000000         0.0000000000       130.9565323535      -49.9411231226      105.3809253768
atom         4.2021100000        5.8401500000        6.3653700000 C         0.0000000000         0.0000000000       101.4099664635      -29.7703992154        0.2328579134
atom         6.3150100000        6.4564200000        7.4542200000 C         0.0000000000         0.0000000000       -36.6213986631      -70.4683994232      -60.1875638244
atom         5.6117900000        4.0869400000        7.3497500000 C         0.0000000000         0.0000000000         9.5957866670       81.8673417524      -51.6985361374
atom         3.5960400000        5.9796300000        7.2736100000 H         0.0000000000         0.0000000000        77.7190852053      -18.4005315696     -105.7665304106
atom         3.6056600000        6.0566100000        5.4741100000 H         0.0000000000         0.0000000000        80.6114273667      -28.5963647356      105.4721154273
atom         5.8676800000        6.6603400000        8.4316000000 H         0.0000000000         0.0000000000        44.4427277197      -22.1932856042     -113.7061617949
atom         6.0134600000        3.1000200000        7.1420000000 H         0.0000000000         0.0000000000       -49.8650971225      120.5782012684       19.8111777237
atom         7.1941700000        7.0781900000        7.3170300000 H         0.0000000000         0.0000000000      -107.8107124481      -75.3329034497       11.3329706595
atom         5.1017000000        4.0813600000        8.3175600000 H         0.0000000000         0.0000000000        52.1213864726        3.5299627147     -112.5373655446
energy     -4389.9905395783
charge 0
end
begin
comment generated by PY
lattice        25.0000000000         0.0000000000         0.0000000000
lattice         0.0000000000        25.0000000000         0.0000000000
lattice         0.0000000000         0.0000000000        25.0000000000
atom         6.9663100000        7.7523900000        5.2149400000 O         0.0000000000         0.0000000000      -284.0010159386     -107.7228260588        2.7831031024
atom         4.9982500000        7.3769400000        4.2861800000 O         0.0000000000         0.0000000000       196.7011107135      -17.6226989416      229.8048261895
atom         8.2592100000        3.4219100000        8.7005800000 O         0.0000000000         0.0000000000       -41.6672340450      314.5814313130      -78.3105903393
atom         4.0878100000        4.2959900000        4.1479200000 O         0.0000000000         0.0000000000       168.5597821851     -111.5259574308      226.1384989537
atom         5.5097900000        2.8346400000        4.9960000000 O         0.0000000000         0.0000000000      -179.6893271937      244.3512300125       18.4871713648
atom         8.8891800000        5.5421700000        8.7903900000 O         0.0000000000         0.0000000000      -207.7187285134     -232.4167015832     -103.8321463031
atom         5.3273100000        6.7663100000        6.4444300000 N         0.0000000000         0.0000000000        31.1493602105     -133.0697120427       24.5757363670
atom         4.6395900000        4.4479300000        6.3416900000 N         0.0000000000         0.0000000000        99.0238219844       92.8104228083       35.1544840788
atom         6.6998300000        5.0542600000        7.3771800000 N         0.0000000000         0.0000000000      -136.0033171621       47.8095072935       13.8974169785
atom         5.8123200000        7.3190700000        5.2080500000 N         0.0000000000         0.0000000000        35.3556741849       54.9195885408      -94.6852090228
atom         4.7779800000        3.8247400000        5.0523000000 N         0.0000000000         0.0000000000         2.5320476037      -57.4244026914     -100.4708246116
atom         8.1395900000        4.6240200000        8.4431200000 N         0.0000000000         0.0000000000       147.9282390215      -56.2301935733      120.4262518642
atom         4.2029100000        5.8398900000        6.3656400000 C         0.0000000000         0.0000000000       101.8896832473      -29.8398384059        0.1623010216
atom         6.3172500000        6.4555100000        7.4529600000 C         0.0000000000         0.0000000000       -36.1118938823      -72.7058652604      -55.3048227898
atom         5.6141500000        4.0865500000        7.3485400000 C         0.0000000000         0.0000000000        11.0646289931       82.8231072941      -46.3890244674
atom         3.5976700000        5.9790900000        7.2744700000 H         0.0000000000         0.0000000000        77.7151357938      -18.4046129308     -105.7766801293
atom         3.6057300000        6.0565400000        5.4748900000 H         0.0000000000         0.0000000000        80.7295302040      -28.6246917222      105.3492565124
atom         5.8785400000        6.6704300000        8.4273900000 H         0.0000000000         0.0000000000        41.9959126746      -21.8738899917     -112.5162542398
atom         6.0223500000        3.1062300000        7.1339000000 H         0.0000000000         0.0000000000       -51.3024447883      118.7796670342       20.0514593918
atom         7.1984500000        7.0687400000        7.3082100000 H         0.0000000000         0.0000000000      -108.0105149961      -73.0976687534       11.7828878475
atom         5.1053600000        4.0673600000        8.3123200000 H         0.0000000000         0.0000000000        49.8614868242        4.4843981504     -111.3301547691
energy     -4379.4474528824
charge 0
end
begin
comment generated by PY
lattice        25.0000000000         0.0000000000         0.0000000000
lattice         0.0000000000        25.0000000000         0.0000000000
lattice         0.0000000000         0.0000000000        25.0000000000
atom         6.9644900000        7.7558900000        5.2155700000 O         0.0000000000         0.0000000000      -284.0546646995     -108.0237286164        2.5737593305
atom         4.9965000000        7.3789300000        4.2870700000 O         0.0000000000         0.0000000000       196.4632963898      -17.5927450414      229.6075797399
atom         8.3350500000        3.4067200000        8.7789600000 O         0.0000000000         0.0000000000       -40.9741135636      316.1252727760      -79.4324709865
atom         4.0852500000        4.2951500000        4.1486700000 O         0.0000000000         0.0000000000       168.3378777480     -111.3936966730      225.9717931847
atom         5.5063600000        2.8326200000        4.9964000000 O         0.0000000000         0.0000000000      -179.5947764503      244.6619058602       18.3073416654
atom         8.9651900000        5.5272400000        8.8682700000 O         0.0000000000         0.0000000000      -208.0974208627     -233.8201523515     -105.0416152360
atom         5.3282300000        6.7657000000        6.4438300000 N         0.0000000000         0.0000000000        30.6460896451     -132.9319966853       23.7121386537
atom         4.6406900000        4.4479500000        6.3411300000 N         0.0000000000         0.0000000000        98.6338862729       93.0710310955       34.3553229285
atom         6.6937600000        5.0555200000        7.3890000000 N         0.0000000000         0.0000000000      -144.8333471134       51.3053702014       -5.6869428309
atom         5.8109800000        7.3208500000        5.2086600000 N         0.0000000000         0.0000000000        35.9601083853       54.8959111299      -94.6011594653
atom         4.7758700000        3.8239000000        5.0527900000 N         0.0000000000         0.0000000000         3.0935346614      -57.7799926742     -100.4486499105
atom         8.2173000000        4.6083900000        8.5206500000 N         0.0000000000         0.0000000000       160.8206502021      -60.7344675514      132.5779697571
atom         4.2037100000        5.8396200000        6.3659000000 C         0.0000000000         0.0000000000       102.3167372844      -29.9149224402        0.0011732820
atom         6.3194800000        6.4546000000        7.4517100000 C         0.0000000000         0.0000000000       -35.8239622428      -74.3932240024      -50.8170875822
atom         5.6165200000        4.0861600000        7.3473300000 C         0.0000000000         0.0000000000        12.0284577476       83.6488136410      -41.6350057758
atom         3.5992900000        5.9785600000        7.2753400000 H         0.0000000000         0.0000000000        77.7016740598      -18.4057276648     -105.7611801323
atom         3.6057900000        6.0564700000        5.4756700000 H         0.0000000000         0.0000000000        80.8458347444      -28.6515818356      105.2257896267
atom         5.8894000000        6.6805100000        8.4231700000 H         0.0000000000         0.0000000000        39.7107732857      -21.7019453936     -111.3197907470
atom         6.0312400000        3.1124400000        7.1258100000 H         0.0000000000         0.0000000000       -52.6855833006      117.2046459193       20.2980108102
atom         7.2027200000        7.0593000000        7.2993900000 H         0.0000000000         0.0000000000      -108.3062299091      -71.0398888058       12.2058463334
atom         5.1090200000        4.0533700000        8.3070900000 H         0.0000000000         0.0000000000        47.8106017154        5.4713191121     -110.0918535243
energy     -4370.6209819956
charge 0
end
begin
comment generated by PY
lattice        25.0000000000         0.0000000000         0.0000000000
lattice         0.0000000000        25.0000000000         0.0000000000
lattice         0.0000000000         0.0000000000        25.0000000000
atom         6.9626600000        7.7593900000        5.2162000000 O         0.0000000000         0.0000000000      -284.1400783602     -108.3428657997        2.3721561117
atom         4.9947500000        7.3809300000        4.2879500000 O         0.0000000000         0.0000000000       196.2143332963      -17.5778201379      229.4548589510
atom         8.4108800000        3.3915300000        8.8573400000 O         0.0000000000         0.0000000000       -39.9740025366      316.8446521153      -80.2122272653
atom         4.0827000000        4.2943200000        4.1494200000 O         0.0000000000         0.0000000000       168.1186357992     -111.2531362465      225.8401101205
atom         5.5029200000        2.8306100000        4.9968000000 O         0.0000000000         0.0000000000      -179.5094038050      244.9930490680       18.1301003765
atom         9.0412000000        5.5123100000        8.9461500000 O         0.0000000000         0.0000000000      -207.4817902879     -234.7847844261     -105.6546007031
atom         5.3291500000        6.7650900000        6.4432400000 N         0.0000000000         0.0000000000        30.0437059086     -132.9147810877       22.9956023126
atom         4.6417900000        4.4479700000        6.3405700000 N         0.0000000000         0.0000000000        98.1690966612       93.4360011106       33.6748272194
atom         6.6876900000        5.0567800000        7.4008300000 N         0.0000000000         0.0000000000      -151.3506378286       53.5928518088      -23.4594572186
atom         5.8096400000        7.3226300000        5.2092700000 N         0.0000000000         0.0000000000        36.6475996789       54.9025850192      -94.5461672628
atom         4.7737700000        3.8230700000        5.0532700000 N         0.0000000000         0.0000000000         3.6798691970      -58.1828618895     -100.4193229392
atom         8.2950100000        4.5927500000        8.5981800000 N         0.0000000000         0.0000000000       170.7404814656      -63.9044058117      142.6872721097
atom         4.2045000000        5.8393600000        6.3661700000 C         0.0000000000         0.0000000000       102.6896723543      -29.9943466351       -0.2301781508
atom         6.3217100000        6.4536900000        7.4504500000 C         0.0000000000         0.0000000000       -35.8490047603      -75.5403122365      -46.8398432272
atom         5.6188800000        4.0857700000        7.3461200000 C         0.0000000000         0.0000000000        12.3875834150       84.3696301391      -37.5165148527
atom         3.6009200000        5.9780200000        7.2762100000 H         0.0000000000         0.0000000000        77.6762701550      -18.4021223186     -105.7340933336
atom         3.6058600000        6.0564000000        5.4764500000 H         0.0000000000         0.0000000000        80.9613849801      -28.6806469726      105.1161528022
atom         5.9002500000        6.6906000000        8.4189600000 H         0.0000000000         0.0000000000        37.5952972062      -21.6962718656     -110.0793961987
atom         6.0401300000        3.1186500000        7.1177200000 H         0.0000000000         0.0000000000       -53.9692602247      115.8263539837       20.5880321431
atom         7.2069900000        7.0498500000        7.2905700000 H         0.0000000000         0.0000000000      -108.6447362098      -69.1838412549       12.6418534007
atom         5.1126700000        4.0393800000        8.3018500000 H         0.0000000000         0.0000000000        45.9944578955        6.4932964983     -108.8086422744
energy     -4363.2360627055
charge 0
end
begin
comment generated by PY
lattice        25.0000000000         0.0000000000         0.0000000000
lattice         0.0000000000        25.0000000000         0.0000000000
lattice         0.0000000000         0.0000000000        25.0000000000
atom         6.9608400000        7.7628800000        5.2168400000 O         0.0000000000         0.0000000000      -284.1028538978     -108.6469360487        2.1935835544
atom         4.9930100000        7.3829300000        4.2888300000 O         0.0000000000         0.0000000000       196.0156568616      -17.6067042209      229.2950585739
atom         8.4867200000        3.3763400000        8.9357200000 O         0.0000000000         0.0000000000       -38.4912567864      316.5394470549      -80.2335334540
atom         4.0801500000        4.2934800000        4.1501700000 O         0.0000000000         0.0000000000       167.9603638105     -111.0997205697      225.6773078518
atom         5.4994900000        2.8285900000        4.9971900000 O         0.0000000000         0.0000000000      -179.3202020473      245.2220591188       17.9720853170
atom         9.1172100000        5.4973700000        9.0240300000 O         0.0000000000         0.0000000000      -205.6037780198     -235.2704136783     -105.2134805316
atom         5.3300800000        6.7644800000        6.4426400000 N         0.0000000000         0.0000000000        29.0358684239     -132.5158022567       22.1810854162
atom         4.6428900000        4.4479900000        6.3400100000 N         0.0000000000         0.0000000000        97.0651344342       93.6836592563       32.8131978119
atom         6.6816100000        5.0580400000        7.4126500000 N         0.0000000000         0.0000000000      -157.9153136583       55.2729712838      -38.3836817893
atom         5.8083100000        7.3244000000        5.2098800000 N         0.0000000000         0.0000000000        37.0982962306       54.8799722253      -94.2537731990
atom         4.7716700000        3.8222300000        5.0537600000 N         0.0000000000         0.0000000000         4.0584957770      -58.4265553999     -100.1039093638
atom         8.3727200000        4.5771100000        8.6757100000 N         0.0000000000         0.0000000000       179.9808662709      -66.3961540102      151.4708418557
atom         4.2053000000        5.8390900000        6.3664400000 C         0.0000000000         0.0000000000       103.0365322120      -30.1013781377       -0.5128738280
atom         6.3239500000        6.4527900000        7.4492000000 C         0.0000000000         0.0000000000       -36.3531412749      -76.7258634820      -44.8687518122
atom         5.6212400000        4.0853800000        7.3449100000 C         0.0000000000         0.0000000000        12.3861879128       85.6697790705      -35.4863748564